<?xml version="1.0"?>
<VTKFile type="UnstructuredGrid"  version="0.1"  >
<UnstructuredGrid>
<Piece  NumberOfPoints="2690" NumberOfCells="4864">
<Points>
<DataArray  type="Float64"  NumberOfComponents="3"  format="ascii">-5.031918038103161 22.00701045811408 0  -5.629379929203189 21.26958140644065 0  -5.031279447220349 21.50758649661729 0  -5.030549455825303 21.00705700082604 0  -5.630001515100852 21.76970673393143 0  -6.228109789884403 21.53126992780313 0  -9 21.99999999996945 0  -8.401534758796872 21.2639651572722 0  -9 21.49999999997139 0  -9 20.99999999997333 0  -8.401645319878886 21.7639569318884 0  -7.803186188162875 21.52789567531255 0  -9 32.9999999999446 0  -8.4039641806283 32.26394242021067 0  -9 32.49999999994358 0  -9 31.99999999994255 0  -8.404074790824696 32.76394443352134 0  -7.808044695366786 32.52787246290517 0  -5.0480451613686 33.00758289722601 0  -5.560648766093772 32.30386114586908 0  -5.047374794803281 32.5085877519437 0  -5.046613308733426 32.00734210307171 0  -5.561288869078121 32.80405404707597 0  -6.074557831298191 32.59943957614669 0  -5.079090013165098 54.00724620666803 0  -5.671153617722797 54.74440587872299 0  -5.670542296600802 54.24470650494248 0  -6.261925247860206 54.48110840482167 0  -5.079788563691739 54.50776709565435 0  -5.080443560248572 55.00731948827917 0  -9 54.99999999998974 0  -8.480457930453699 54.29735240509224 0  -9 54.49999999998872 0  -9 53.99999999998769 0  -8.480553810137238 54.79732292179012 0  -7.961031199025169 54.5946552158731 0  -9 39.99999999995897 0  -8.405842043632681 40.73892024909069 0  -8.405731445088646 40.23892166685421 0  -7.811568300293693 40.47782274114211 0  -9 40.49999999996 0  -9 40.99999999996102 0  -5.059804797828899 41.00672183800508 0  -5.626752917235938 40.27504824673465 0  -5.059141757873801 40.50780366958539 0  -5.05843434381342 40.00756883840698 0  -5.627376216246935 40.77493402248221 0  -6.194991986920497 40.5419222370079 0  -9 55.99999999999179 0  -8.433680799588197 56.74464217811398 0  -8.433585821118616 56.24462367988504 0  -7.867271161241407 56.48924664696876 0  -9 56.49999999999282 0  -9 56.99999999999384 0  -5.082031464824389 56.0069280045618 0  -5.64932751392661 56.75026723675042 0  -5.648720125145402 56.25023840657106 0  -6.215318941815498 56.49268420614971 0  -5.082773967342468 56.5079990825629 0  -5.0834262969577 57.00733992628359 0  -7.462027461555692 43.00396761967272 0  -6.627556860885934 43.11436683862548 0  -7.227489004514444 43.3419774133191 0  -6.993008883080731 43.6799930992927 0  -6.862038052506146 42.77631404897443 0  -6.261946279415789 42.54866128527126 0  -6.606117227013208 49.007479481048 0  -7.438760498455425 48.896661776149 0  -6.84007682706904 48.6694165916124 0  -7.074098613269549 48.33133184812315 0  -7.204743190962497 49.23470943320441 0  -7.803265350000321 49.46199307818319 0  -6.603425880513152 46.00702750314218 0  -7.437006807602199 45.89637103986129 0  -6.83765409282539 45.66888433281432 0  -7.071942805618886 45.33077731546359 0  -7.202722473549473 46.23447325346501 0  -7.801917017658815 46.46189245131366 0  -6.568645805211902 7.007284287901906 0  -7.414325861464967 6.896571997741853 0  -6.806279462109193 6.669217249621553 0  -7.043973667130342 6.331152054055542 0  -7.176636075976353 7.234636368328776 0  -7.784524958067601 7.461982755380927 0  -7.454568723984255 30.00392294966079 0  -6.616049098311034 30.11426826637452 0  -7.218893168947635 30.34182620139287 0  -6.983276815808555 30.67970560859273 0  -6.851668032386792 29.77634185164712 0  -6.248663729764893 29.54879877087823 0  -6.566049524770978 4.006937342939813 0  -7.412767484041763 4.112696693373682 0  -6.804465852654622 4.343656950550642 0  -7.042827069048347 4.68035346225234 0  -7.174409890075879 3.775985661670995 0  -7.782857619688381 3.545079980121218 0  -6.571291912209545 10.00734876962223 0  -7.416173821229323 10.11297166177967 0  -6.809201965265196 10.3439763847699 0  -7.047055395492297 10.68060414714464 0  -7.178316218424301 9.776350712020841 0  -7.785442680780922 9.54534447653633 0  -6.573944249823801 13.00741103908565 0  -7.417778459409242 12.89667414355096 0  -6.811056610098086 12.66934640378428 0  -7.048229156958437 12.33128424999503 0  -7.180608805043134 13.23474728480001 0  -7.787173370547919 13.46206238393967 0  -6.576607250276291 16.00752447439104 0  -7.41951638407875 15.89670698101041 0  -6.813458063607601 15.66946805188815 0  -7.050369982220089 15.33139354213773 0  -7.182608763246378 16.23475452097774 0  -7.788508018592431 16.46202703465107 0  -6.57929964562715 19.00673807233668 0  -7.421399379576756 19.11249577144624 0  -6.816437204481731 19.34324628022799 0  -7.053513355936598 19.67979681007293 0  -7.184318733825124 18.77592383278017 0  -7.789442466727512 18.54508995251976 0  -6.586439890423959 27.00648587647244 0  -7.426055887768764 27.11233758571287 0  -6.822873670648184 27.343135716345 0  -7.059249129819229 27.67979561557881 0  -7.189677500057931 26.77563803536435 0  -7.793016582532045 26.54484903006871 0  -8.274191826340093 19.09588618929322 0  -8.031842100245006 18.82047698497509 0  -8.394660215733387 18.27256453248943 0  -8.637021909047254 18.54797373568535 0  -9 17.99999999998495 0  -8.276333190286957 27.09580664500195 0  -8.034699436457531 26.82032869876654 0  -8.396448058776055 26.27241810571324 0  -8.638093570366998 26.54790203159828 0  -9 25.99999999995395 0  -8.273333972291669 15.90833139093609 0  -8.030896243163102 16.18518319919886 0  -8.394314449683835 16.73099758056725 0  -8.636740227809238 16.4541541234179 0  -9 16.99999999998883 0  -5.766704899447987 30.10247074773946 0  -6.007657810605563 29.82562567458253 0  -5.645499645283721 29.27954659690388 0  -5.404530536826999 29.55672069726423 0  -5.042121731806738 29.00699867575472 0  -8.272534550956793 12.90832879066646 0  -8.029829409370517 13.18519411066217 0  -8.393646483050237 13.7310342423159 0  -8.636339958528707 13.45416779234615 0  -9 13.99999999999401 0  -8.271789293788393 10.09610910411479 0  -8.028640254485252 9.820727087032544 0  -8.392661498061623 9.272671070324638 0  -8.635822425860805 9.54805315360781 0  -9 8.99999999999857 0  -8.270228227235853 4.095978979189428 0  -8.026565081493288 3.820535344583167 0  -8.391380279627999 3.272529810163368 0  -8.635049694884502 3.547974932906194 0  -9 2.999999999998668 0  -8.270947767502706 6.908277673245827 0  -8.027711942840716 7.185128817234232 0  -8.392322010063808 7.730993483802399 0  -8.635545965264578 7.454143114808586 0  -9 7.999999999999485 0  -8.28137569665863 45.90818509490819 0  -8.041621692395029 46.18503066791757 0  -8.401018856375323 46.73095887247425 0  -8.640760883966969 46.4541140141062 0  -9 46.99999999997333 0  -8.282181996709438 48.90830659038135 0  -8.042698611786559 49.18515373476129 0  -8.401693682468766 49.73098008716353 0  -8.641165063059049 49.45414314060033 0  -9 49.99999999997949 0  -5.782319894660359 43.1025549351992 0  -6.022106122593143 42.82560453401022 0  -5.661694112680141 42.27931118596702 0  -5.42189338081796 42.55662864095792 0  -5.061221606625214 42.00671673266665 0  -5.754614222609742 23.92497478746604 0  -6.001509808890199 24.19195474512717 0  -5.642320249308048 24.73462628783001 0  -6.248353198685995 24.45895746863151 0  -5.395456718981341 24.46797857810253 0  -5.036392129112819 25.00697547727895 0  -8.287696475966252 52.08563666578191 0  -8.043572129917766 51.81861465298759 0  -8.399636824616728 51.27582537940179 0  -7.799398347130719 51.55161235634326 0  -8.64377514247386 51.54284696035521 0  -9 50.99999999998153 0  -5.771615004298128 38.09223158636871 0  -6.016621006227023 37.82369083563849 0  -5.657882524992788 37.28258579877291 0  -6.261678854810182 37.5551759647259 0  -5.412858585109117 37.55152276427799 0  -5.05385087237397 37.00640469160992 0  -5.767809063675452 34.92490634092776 0  -6.013704988669544 35.19183638085828 0  -5.655984013907879 35.73442123514275 0  -6.259548809210599 35.45878850612726 0  -5.410115633507692 35.46787225302289 0  -5.052530917600243 36.00666603221195 0  -7.904376650482802 50.50342684319266 0  -7.851876961650737 51.02752839183956 0  -8.452239886722579 50.75169499788156 0  -6.154751956574233 36.50692300911773 0  -6.208223331425474 37.03100570876589 0  -5.604311224598885 36.75790674535599 0  -6.20714164320106 35.98281158423818 0  -5.603686945600365 36.25783387416725 0  -6.004479359744614 25.26757215570148 0  -6.126400580719935 24.86328055709476 0  -5.520457708710517 25.13855278629357 0  -8.036605580979845 25.74833251051274 0  -7.914793169068251 26.14659055013274 0  -8.518325220709094 25.87416738047845 0  -6.968112435385693 34.38101180560022 0  -6.613758305432736 34.91993902275877 0  -6.867706177634686 35.24379922463529 0  -7.222068743993789 34.70492921082171 0  -7.475963232980298 35.0288342757183 0  -7.095040078314373 52.62919327363163 0  -7.44714689226057 52.09043984095294 0  -7.19485641396523 51.76668794487542 0  -6.842757107851822 52.30546231668869 0  -6.590411692175085 51.98175169132232 0  -6.971326643631526 38.62916343672337 0  -6.616574787113676 38.09220984471258 0  -6.869706777955749 37.76698132860885 0  -7.224450738001335 38.30399554235667 0  -7.477636442800912 37.97881301745129 0  -6.959819985581846 23.38104960641275 0  -6.604014974184675 23.92002727955105 0  -6.858996340784327 24.24391889258457 0  -7.214810220679253 23.70498981300645 0  -7.469739010907134 24.02891038592903 0  -7.891001931096612 17.50328245291459 0  -7.840211961355527 18.02419660534308 0  -8.445552319197825 17.75162211267676 0  -7.839764661767281 16.98265857207344 0  -8.445449646891767 17.25165176392273 0  -7.887347873105922 8.503359468667664 0  -7.8363856814992 9.024352631251794 0  -8.443724188468439 8.751680494395599 0  -7.932292099660652 2.418515346351934 0  -7.857554261218755 2.981788766274424 0  -8.466193756487542 2.709267568659767 0  -7.835946098010638 7.982672953047206 0  -8.443623347459424 8.251677366988529 0  -7.853830992884198 49.98271410804879 0  -8.452136427402518 50.25172416318339 0  -6.071735502567757 41.59989895006187 0  -6.166856667175626 42.0743095683
[...]
<PointData  Scalars="f_29"> 
<DataArray  type="Float64"  Name="f_29"  format="ascii">2.4905672326564368e+02  2.4056019694386040e+02  2.4328456648218946e+02  2.3752062715374336e+02  2.4629705727044026e+02  2.4356803638809791e+02  2.4902751220591065e+02  2.4052931751322467e+02  2.4325433475384114e+02  2.3748914259516667e+02  2.4626604916517641e+02  2.4354954776083795e+02  3.7538688664736088e+02  3.6680864958528014e+02  3.6955774158902108e+02  3.6373787670059016e+02  3.7259998406113641e+02  3.6985779067900791e+02  3.7539149328503788e+02  3.6723796636842366e+02  3.6959275360752264e+02  3.6380482028972813e+02  3.7301624110440605e+02  3.7066001320203770e+02  6.1987564415598001e+02  6.2863026189189509e+02  6.2272702546452115e+02  6.2552649048945693e+02  6.2580363979767264e+02  6.3175602023500858e+02  6.3170108336316662e+02  6.2339784400453789e+02  6.2579718963294692e+02  6.1989191181594344e+02  6.2929277721607002e+02  6.2689775776024840e+02  4.5630311794620826e+02  4.6495602757673834e+02  4.5912439704035091e+02  4.6190068920462630e+02  4.6217319548515252e+02  4.6803523775854660e+02  4.6806121088670483e+02  4.5950785604342803e+02  4.6221161655624684e+02  4.5635212408133367e+02  4.6534271854266655e+02  4.6263319635776196e+02  6.4344966441583188e+02  6.5226501274106352e+02  6.4635818099515018e+02  6.4923382708103418e+02  6.4936565521590933e+02  6.5531495572595941e+02  6.4348818686802542e+02  6.5229259440616727e+02  6.4638776671434459e+02  6.4925188949580570e+02  6.4939979655290188e+02  6.5534961275191574e+02  4.9129025303975300e+02  4.9255620460863867e+02  4.9521809288279820e+02  4.9914807308334554e+02  4.8862969232606775e+02  4.8597079415493016e+02  5.6127811514852317e+02  5.6000354646011840e+02  5.5733118934267532e+02  5.5338552047179041e+02  5.6395191051642405e+02  5.6662309769978856e+02  5.2625066381370311e+02  5.2497560731386125e+02  5.2231494872303199e+02  5.1837925422418425e+02  5.2891277724782174e+02  5.3157397398554417e+02  7.8682707583980047e+01  7.7449641576587908e+01  7.4877489125774034e+01  7.1073106651979785e+01  8.1256426085406716e+01  8.3827995563036851e+01  3.4073101746159023e+02  3.4198419012849240e+02  3.4461737017326180e+02  3.4850658643313949e+02  3.3810098627559182e+02  3.3547112315027090e+02  4.4910705795961057e+01  4.6118590960854348e+01  4.8701238140113688e+01  5.2492421600935081e+01  4.2329133359361563e+01  3.9748754998454181e+01  1.1254978249405085e+02  1.1376477783615192e+02  1.1636112225465840e+02  1.2017273362321350e+02  1.0995455820736721e+02  1.0736161435207660e+02  1.4650107500275450e+02  1.4526202439661483e+02  1.4267603817727849e+02  1.3885183251456300e+02  1.4908822570298017e+02  1.5167372269328408e+02  1.8054071808209221e+02  1.7930146851320268e+02  1.7670507754294616e+02  1.7287068306767932e+02  1.8313845649164136e+02  1.8573351703184156e+02  2.1469155877050898e+02  2.1592251127862551e+02  2.1853956125571233e+02  2.2238965284368874e+02  2.1207754794578631e+02  2.0946383491676414e+02  3.0625896363254566e+02  3.0749631313130982e+02  3.1013019831451084e+02  3.1400290783372287e+02  3.0362707115391157e+02  3.0099433479404991e+02  2.1575142654933018e+02  2.1260871108840780e+02  2.0638453059404267e+02  2.0952009303348066e+02  2.0332507799003892e+02  3.0732559166335653e+02  3.0416020491868704e+02  2.9788877569578727e+02  3.0104715797450513e+02  2.9479642644561005e+02  1.7945060742164983e+02  1.8259136518714547e+02  1.8879515009005701e+02  1.8565160457811240e+02  1.9182451839998646e+02  3.4181943244259907e+02  3.3864653054809668e+02  3.3237263504444809e+02  3.3552916279583349e+02  3.2929055839795706e+02  1.4540897962418902e+02  1.4854065757268285e+02  1.5472447797265559e+02  1.5159711719191873e+02  1.5776074082679457e+02  1.1359468813952755e+02  1.1047898501393161e+02  1.0430734139895911e+02  1.0741605227938068e+02  1.0127320597359355e+02  4.5949866401361000e+01  4.2849592387377250e+01  3.6705376642927071e+01  3.9805677080712570e+01  3.3692626770801660e+01  7.7593882351280683e+01  8.0710367188425408e+01  8.6863271993407722e+01  8.3744588370799789e+01  8.9866823643730967e+01  5.2512840389873963e+02  5.2835041766906943e+02  5.3471442891419815e+02  5.3149665662547091e+02  5.3784032964594667e+02  5.6015783079389576e+02  5.6338975408969065e+02  5.6977457334663541e+02  5.6653984722419580e+02  5.7289410884702670e+02  4.9239217491596276e+02  4.8918286413550851e+02  4.8284048141093632e+02  4.8603278874475245e+02  4.7973134177978551e+02  2.7091457657347246e+02  2.7398092975019006e+02  2.8018657557169001e+02  2.7704708050015716e+02  2.7711388428901222e+02  2.8331475983176080e+02  5.9739425627441926e+02  5.9425760656694558e+02  5.8791264974544367e+02  5.9111959857006229e+02  5.9104168138026591e+02  5.8472556581638491e+02  4.3415045807615854e+02  4.3105100529978353e+02  4.2479818076344003e+02  4.2794986891389215e+02  4.2787840749104788e+02  4.2166992997644240e+02  3.9747697248177343e+02  4.0057476332561049e+02  4.0683919100495814e+02  4.0367248660823736e+02  4.0372873712727693e+02  4.0997868600309562e+02  5.7882607355987989e+02  5.8497487411777979e+02  5.8175363687673473e+02  4.1581704684395629e+02  4.2188532942009294e+02  4.1872359009026201e+02  4.0974002110523116e+02  4.1291613677386130e+02  2.8631685833655143e+02  2.8167958685770429e+02  2.8483505568644443e+02  2.9186271509835058e+02  2.9642940129728288e+02  2.9331324637148140e+02  3.9123829633401004e+02  3.9745366772715920e+02  4.0120499974427997e+02  3.9498713957136994e+02  3.9873663461365499e+02  6.0374657233834125e+02  5.9742961821068377e+02  5.9362399002724555e+02  5.9993807068995056e+02  5.9613087249940656e+02  4.4040661638756342e+02  4.3417354075614634e+02  4.3041158046886886e+02  4.3664160708254519e+02  4.3287725912031345e+02  2.6472903302477596e+02  2.7088601307015517e+02  2.7459928444233060e+02  2.6844025065907402e+02  2.7215140704386334e+02  1.9758946772341145e+02  2.0352851538312910e+02  2.0043493507018849e+02  1.9165715784211130e+02  1.9472568209180926e+02  9.5586735319352016e+01  1.0147637608792981e+02  9.8407342609999162e+01  2.7088060199760964e+01  3.3421058947774398e+01  3.0373041471602527e+01  8.9703227762956132e+01  9.2745226800434750e+01  5.7272020491516525e+02  5.7587863607644965e+02  4.7494609940083546e+02  4.8045910520087989e+02  4.7732321717572927e+02  2.7978072796158625e+02  2.7841482276543536e+02  2.7596474661262545e+02  5.8675523846751287e+02  5.8893706499811435e+02  5.9144255562321712e+02  4.2364996098518537e+02  4.2579989480596038e+02  4.2826245682529452e+02  4.0798579478567893e+02  4.0583014922743700e+02  4.0335990167696087e+02  3.2624423395666145e+02  3.3085804340107870e+02  3.2775284002157787e+02  4.9956839111212315e+02  4.9276520253959876e+02  4.9935922483256456e+02  5.5296406232451420e+02  5.5979128911182863e+02  5.5317460053853142e+02  5.1795422577267459e+02  5.2476267428928668e+02  5.1816662181980757e+02  7.0661806478433633e+01  7.7242721138103221e+01  7.0867824514593551e+01  5.2880604708446633e+01  4.6313827307805788e+01  5.2687166443175663e+01  3.4901343028587814e+02  3.4223699853961131e+02  3.4876186931249595e+02  1.2056282713799742e+02  1.1396124230276936e+02  1.2036848544241840e+02  1.3843899435533956e+02  1.4505456492788281e+02  1.3864573236323508e+02  1.7246048257191816e+02  1.7909483304035535e+02  1.7266541419375019e+02  2.2287724885684443e+02  2.1616817176797539e+02  2.2263554887222577e+02  3.1440287094224465e+02  3.0769692208525919e+02  3.1420370300342631e+02  2.9725746787595352e+02  2.9912551451298935e+02  3.0175829321921992e+02  2.0529165719736184e+02  2.0737748944262506e+02  2.0999117870655687e+02  1.8982916268674364e+02  1.8778204256414708e+02  1.8518417750780205e+02  3.3159815298114870e+02  3.3353504992662323e+02  3.3616380679756560e+02  1.5563243111078458e+02  1.5365346302212407e+02  1.5106598680945783e+02  1.0330939432858351e+02  1.0533516733906210e+02  1.0792905481102287e+02  3.7194621707502094e+01  3.8471484339457000e+01  4.1052589791987870e+01  8.7892827317589919e+01  8.5861115704868553e+01  8.3286730397546791e+01  4.8203729899710623e+02  4.8400404408769793e+02  4.8666377177328383e+02  5.7083742149906459e+02  5.6873098906297912e+02  5.6605691491644552e+02  5.3564663268695404e+02  5.3361063620771961e+02  5.3094774126413631e+02  4.6878955672758354e+02  4.7150223483186767e+02  6.3761156758812854e+02  6.3157043904099748e+02  6.3465979619191273e+02  6.3759066487849259e+02  6.3224400250901010e+02  6.3464264214253274e+02  6.4341214131932747e+02  6.4051848575710937e+02  6.4343198784249671e+02  6.4054661757714825e+02  1.5862214855466865e+01  2.3161734493310458e+01  1.7549599467360448e+01  1.9235513123313552e+01  2.1471775744442365e+01  6.8164689991643183e+02  6.8168060067155182e+02  6.8619482827048114e+02  6.8171287139882213e+02  6.8616303231623613e+02  6.9068042702507285e+02  6.8164880452368459e+02  6.8168236529180342e+02  6.8619606876814214e+02  6.8616437295456478e+02  6.9068042702507285e+02  6.6333708455339274e+02  6.5628454543732062e+02  6.5931416195013639e+02  6.6334876908415163e+02  6.5630157934313286e+02  6.5933636525640861e+02  8.6807935404181560e+00  8.7106320955998218e+00  4.3700969999214854e+00  8.7407158937440990e+00  4.3402249804529269e+00  0.0000000000000000e+00  2.5288772094209605e+02  2.4864397513402858e+02  2.5373725973099354e+02  2.4779590867936560e+02  2.5204455001810823e+02  3.7927858329188598e+02  3.7499428743979320e+02  3.8012928026014987e+02  3.7414445497871850e+02  3.7843350750135806e+02  4.5241456158500591e+02  4.5673198639055403e+02  4.5156507113322471e+02  4.5757922955492171e+02  4.5325732181245439e+02  6.1677899743162550e+02  6.2115403437063298e+02  6.1948858732771009e+02  6.1512151523686055e+02  6.1345543325319682e+02  8.5753659863934573e+00  8.6579132560198744e+00  4.3706597084145944e+00  4.2868918839504362e+00  0.0000000000000000e+00  2.3436819786387451e+02  2.3896920657502170e+02  2.3595667440306261e+02  3.6056997687008214e+02  3.6521395233446844e+02  3.6216333611673411e+02  4.7111780783055940e+02  4.6650867411470142e+02  4.6956713303608529e+02  6.3156758088947731e+02  6.3761015794529055e+02  6.3760579468075252e+02  6.4341891755019810e+02  6.3759990008580064e+02  6.4342782396122993e+02  6.3225040611811937e+02  4.6823975014270633e+02  4.7439440209212165e+02  4.7384515677972075e+02  2.4120693075707229e+02  2.4237707860984887e+02  2.4747380527850825e+02  2.4238636673991766e+02  2.4865278500516780e+02  3.6670772673735024e+02  3.6828139841935274e+02  3.7341951480216824e+02  3.6868335210723370e+02  3.7539340484875532e+02  6.2358259923362687e+02  6.2455621255386052e+02  6.1851770696887274e+02  4.6430341717504461e+02  4.6346837583341733e+02  4.6907498382744944e+02  4.5709517477039719e+02  4.5793189934003300e+02  4.6310371439544809e+02  6.4819067756957907e+02  6.4872206630767391e+02  6.4289771889967471e+02  6.4871304485643554e+02  6.5386994866816997e+02  6.5334678705658064e+02  6.5850171823563437e+02  6.2524033516045461e+02  6.3059318077443731e+02  6.5387816911920277e+02  2.5355064280963927e+02  2.4856111583286807e+02  2.5364192296085108e+02  3.7994555732824267e+02  3.7530360045035764e+02  3.8003618354985690e+02  4.5177395859945864e+02  4.5720203243049400e+02  4.5167374899068102e+02  2.0144221115166556e+02  1.9370708476810140e+02  9.9449750094339791e+01  3.2143230050089720e+01  9.1737520277988125e+01  5.7482955219011956e+02  6.1960280174795594e+02  6.1454093153578640e+02  6.1562202439732857e+02  6.2125818949977031e+02  1.9759938703983156e+02  1.9371355714429100e+02  1.9759515493421475e+02  2.0144528817482870e+02  9.5599156266136916e+01  9.1745353716465303e+01  9.5593552755941886e+01  2.8049605563612541e+01  3.2622376307810903e+01  2.7570087909314044e+01  9.9454138857233659e+01  5.7883368010124002e+02  5.7483475545396095e+02  5.7883059416769504e+02  2.3062663358631957e+02  2.3779065155667192e+02  2.3591586369299375e+02  2.3250005397758139e+02  3.5681808987985568e+02  3.6364086592446358e+02  3.6176216930903490e+02  3.5869606194731540e+02  4.6770791588100843e+02  4.7247936658829758e+02  4.7849027660899679e+02  4.7794190485158089e+02  6.7433891153379238e+02  6.6659080843692277e+02  6.7209321726760811e+02  6.6984819684491367e+02  6.6883861717105481e+02  6.7433827661913449e+02  6.6659452185468228e+02  6.7209342653262365e+02  6.6884222345286321e+02  6.6092257802041320e+02  6.6091607861230409e+02  1.6170888681428008e+02  1.5668911847896169e+02  1.5975304441170951e+02  5.4190055522224577e+02  5.3673499912543070e+02  5.3988851055036764e+02  5.8279223204935977e+02  4.1189768328507381e+02  4.1973391702807214e+02  5.8279424812512457e+02  4.1580339765533046e+02  4.1189442860350005e+02  4.1580948547028709e+02  4.1972687093704428e+02  2.8905513549222684e+02  2.9456025699232862e+02  2.9315652786534594e+02  2.9045845235690098e+02  3.4074072382857389e+02  3.3499969095236344e+02  3.4128273529022221e+02  1.8050456058144076e+02  1.7997801327262960e+02  1.8617123524260160e+02  2.1467248875868299e+02  2.0899131323293165e+02  2.1521238495378992e+02  3.0623953766396488e+02  3.0051323368399761e+02  3.0678315423840843e+02  4.4886664614858482e+01  3.9281972303672376e+01  4.5418970495344439e+01  7.8638196554434060e+01  7.8116075992863856e+01  8.4259765488102730e+01  1.1252465985060476e+02  1.0689144902558580e+02  1.1306029735077149e+02  1.4646093192781103e+02  1.4593538056594463e+02  1.5211455431004123e+02  5.2621244199766454e+02  5.2567091260977566e+02  5.3202990512976953e+02  5.6124302450120933e+02  5.6070089530059465e+02  5.6707515525939300e+02  4.9130205587901617e+02  4.8549858687790959e+02  4.9185007974915635e+02  2.3736292789346351e+02  2.3207382864241760e+02  2.3351575795430369e+02  3.6327940986728515e+02  3.5833498520982153e+02  3.5984853049104419e+02  3.2227834230327664e+02  3.1855818814372935e+02  3.2271487045869469e+02  3.1812168767963857e+02  3.2184245445872517e+02  5.0834304577565132e+02  5.0416720507232776e+02  5.0876255564911236e+02  5.0374403250171878e+02  5.0792668026071283e+02  5.0918323123005689e+02  5.1335764398713866e+02  5.1378021326775342e+02  5.0960520805822972e+02  3.2892030210515907e+02  3.2447816644622492e+02  3.2715648102767653e+02  2.3853204342348994e+02  3.6525399911486505e+02  2.3641614404741830e+01  2.5054053849264773e+02  3.7691495961282180e+02  6.1832524401983142e+02  4.5477634542490017e+02  2.3551065253039633e+02  3.6183100423250119e+02  2.8304721878499367e+02  2.8441742138937917e+02  2.8768637745026069e+02  3.9022346240366210e+02  3.9694345345196496e+02  3.9073081750502138e+02  6.0477259885168871e+02  5.9794361920443987e+02  6.0426175142805448e+02  4.4129807329134815e+02  4.3461956172577993e+02  4.4085399400989490e+02  2.6386110612533622e+02  2.7044984854056105e+02  2.6429495377313629e+02  1.2950013495953223e+02  1.3397312224412264e+02  1.2950807607362341e+02  1.3396533820064664e+02  1.2949207156539433e+02  1.2503481951781720e+02  1.2502663896086274e+02  6.1770423252664266e+01  6.6219802149775717e+01  6.1778422511162830e+01  6.6211852828259481e+01  6.1762469110736177e+01  5.7328768732457036e+01  5.7320796164114775e+01  6.6417600924171632e+02  2.7187542006541867e+02  2.7139889961733837e+02  2.7758564834380354e+02  5.9640292942873612e+02  5.9055692665385027e+02  5.9689786092210068e+02  4.3318292646722585e+02  4.2740611272880801e+02  4.3366790192435815e+02  3.9844344579760565e+02  3.9796339004660734e+02  4.0420549014588914e+02  3.2972658249497630e+02  3.2622026325547176e+02  3.2578438351006940e+02  5.1566054014438669e+02  5.1221092716772614e+02  5.1179281218234911e+02  5.0186829276351375e+02  5.0531542601074034e+02  5.0573568517615286e+02  1.6433708941019438e+02  1.5866990456755408e+02  1.5998413140606351e+02  1.6302414363597941e+02  5.4460399328614119e+02  5.3877275742381983e+02  5.4012463657731746e+02  5.4325335779114118e+02  0.0000000000000000e+00  0.0000000000000000e+00  4.3703180277851024e+00  6.9068042702507285e+02  6.9068042702507285e+02  6.8619608831025573e+02  6.9068042702507285e+02  0.0000000000000000e+00  2.5130923266729104e+02  3.7767604775697697e+02  6.1775936478376968e+02  4.5407605937259325e+02  6.7799230923109542e+02  6.7802419250284265e+02  6.7799410945430338e+02  6.7802517842283066e+02  3.4171860839462106e+01  2.8925186785835745e+01  3.3940907840040367e+01  3.3728926053530188e+01  2.9163181431174298e+01  2.4148673418115060e+01  2.5870523950362900e+02  2.5879916698928565e+02  3.8508429230620538e+02  3.8517633601695462e+02  4.4653571000384852e+02  4.4643095867971812e+02  6.1019477596088461e+02  6.0911446401204296e+02  2.2819366779655914e+02  2.2675169906489103e+02  3.5442854114529433e+02  3.5291694917003122e+02  2.2404817377920526e+01  2.3291217047055873e+01  2.8059766817095088e+01  1.2269947853101307e+01  1.2302325836866929e+01  1.6708583104511732e+02  1.6839715483663977e+02  5.4743336935248396e+02  5.4878233223552854e+02  1.5308034298740978e+01  1.1940389110524354e+01  1.2024104212875489e+01  1.6543358453955915e+02  1.7081221601550968e+02  1.6918702356015655e+02  5.4573368950438021e+02  5.5126831678871577e+02  5.4959527601213586e+02  2.6143009949676929e+02  2.5758295375964491e+02  2.5673672547323662e+02  3.8805038579877737e+02  3.8408909460587267e+02  3.8324114177003361e+02  4.4359645095080344e+02  4.4758019609057146e+02  4.4842696357956044e+02  6.0735017882974205e+02  6.1040309629112392e+02  6.1206174801234488e+02  2.2978737109312340e+02  2.2446950332534800e+02  2.2603671267127163e+02  3.5605137575338733e+02  3.5063483870266708e+02  3.5223742106864927e+02  2.1945520125837280e+01  1.6337768419831775e+01  1.6810192940713119e+01  5.4957501109318366e+02  5.4349354961492941e+02  5.4100794337825062e+02  5.3741411949949895e+02  5.4708979808279264e+02  9.5610262935010041e+01  9.8673357747072828e+01  1.0174731816383854e+02  9.2536778620582112e+01  8.9475683611532233e+01  2.0317368203927757e+02  1.9729598100057009e+02  1.9450972627575186e+02  1.9142212021619673e+02  2.0038677600162092e+02  1.2390443085078719e+02  1.2948508497380399e+02  1.3228770738557543e+02  1.3506915602495337e+02  1.2670625033510468e+02  5.6204478504428700e+01  6.1756204442736504e+01  6.4543729531690673e+01  6.7311032834984445e+01  5.8991459343984445e+01  1.6916802592626189e+02  1.6084271264472358e+02  1.6675291593095554e+02  1.6325814895801133e+02  1.5735002820148034e+02  2.2466528840843498e+02  2.2764763525771733e+02  2.2951437112432782e+02  3.5116541566231996e+02  3.5399296717392195e+02  3.5586581077529047e+02  4.8095944889525350e+02  4.7740089369022104e+02  4.7604015064329639e+02  2.8221130454014087e+02  2.8563413632134888e+02  2.8703449599057234e+02  3.1724498038883587e+02  3.1998155999777646e+02  3.2174346023198956e+02  2.9081133683678053e+02  2.9217764076498821e+02  2.9530205980865122e+02  4.0978132468171407e+02  4.1890634616170234e+02  4.1279166859327876e+02  4.1589469965185157e+02  4.2200951241766370e+02  5.8496133093540527e+02  5.7871610859086616e+02  5.7565339047998907e+02  5.7247515264741583e+02  5.8189800204036385e+02  2.1691910012835848e+01  2.6101130392587883e+01  2.1931314367678553e+02  2.2090512466125924e+02  3.1086399417608772e+02  3.1605926641128497e+02  3.1252031420088639e+02  3.1770298085675972e+02  1.1707835952903494e+02  1.2219116227801435e+02  1.1870568469527747e+02  1.2380051548666309e+02  4.9598025455117431e+02  5.0125727083543512e+02  4.9765915213568462e+02  5.0291655325092984e+02  1.4192396476841043e+02  1.3679196970581555e+02  1.4027649537869723e+02  1.3516403229626124e+02  5.5656150774038952e+02  5.5486469677324715e+02  5.2154144644922133e+02  5.1626138564667554e+02  5.1984827781719184e+02  5.1459446651670373e+02  7.4128057409604892e+01  6.9023197051682061e+01  7.2488683530206302e+01  6.7404236164685358e+01  4.9414777894663608e+01  5.4500675464662415e+01  5.1034046862000821e+01  5.6101621733555604e+01  1.7595609439180873e+02  1.7430696660722984e+02  3.4541605762770041e+02  3.4702745867764446e+02  3.9219280746745375e+02  3.8857040816158292e+02  3.8693859601998014e+02  3.9384990319258435e+02  4.3944691820081880e+02  4.4303939868980592e+02  4.4475914917815828e+02  4.3772306370085539e+02  6.0275242844171203e+02  6.0645167269938247e+02  6.0809828086623565e+02  6.0108205085666668e