<?xml version="1.0"?>
<VTKFile type="UnstructuredGrid"  version="0.1"  >
<UnstructuredGrid>
<Piece  NumberOfPoints="2690" NumberOfCells="4864">
<Points>
<DataArray  type="Float64"  NumberOfComponents="3"  format="ascii">-5.000432478823177 22.00008489161208 0  -5.60348047936019 21.26258601244457 0  -5.000423471269793 21.50009185874674 0  -5.000413719354827 21.0000855503638 0  -5.603488797083354 21.76258751684008 0  -6.206545936631196 21.52507624954794 0  -9 21.99999999996945 0  -8.396938106357041 21.26251784853553 0  -9 21.49999999997139 0  -9 20.99999999997333 0  -8.396939587395597 21.76251774157917 0  -7.793877768485763 21.52503526212956 0  -9 32.9999999999446 0  -8.396970753357257 32.26251754880512 0  -9 32.49999999994358 0  -9 31.99999999994255 0  -8.396972236357175 32.76251757161378 0  -7.793943063926651 32.52503494307865 0  -5.000649232440645 33.00009193895099 0  -5.520253061424353 32.29644901565707 0  -5.000639859955643 32.50010415460233 0  -5.000629945094482 32.00008898879561 0  -5.520261587093472 32.79645138907475 0  -6.03987468567727 32.59279754373935 0  -5.001063655127901 54.00008816505817 0  -5.604039770686575 54.73758397423209 0  -5.604031589028691 54.23758768237361 0  -6.206998705476557 54.47507438187733 0  -5.001072903654641 54.50009416614293 0  -5.00108207632274 55.00008872359842 0  -9 54.99999999998974 0  -8.470075683136605 54.296128971093 0  -9 54.49999999998872 0  -9 53.99999999998769 0  -8.470076948558667 54.79612860997456 0  -7.940152883561991 54.59225733264864 0  -9 39.99999999995897 0  -8.396995913931827 40.73751729210884 0  -8.396994431487677 40.23751730574075 0  -7.793990272425503 40.47503436228115 0  -9 40.49999999996 0  -9 40.99999999996102 0  -5.000806831651029 41.00008143529304 0  -5.577113309939461 40.2679062836384 0  -5.000797548318403 40.50009458481728 0  -5.000788111687308 40.00009199597148 0  -5.577121668142629 40.76790486563193 0  -6.153437497268585 40.53571324093338 0  -9 55.99999999999179 0  -8.421868214748567 56.74334126272225 0  -8.421866959627627 56.24334103876085 0  -7.84373523631603 56.48668206439149 0  -9 56.49999999999282 0  -9 56.99999999999384 0  -5.001102754573517 56.00008425185352 0  -5.579247499534023 56.74340963205783 0  -5.579239331495772 56.24340927297168 0  -6.157374890244556 56.48672387630496 0  -5.001112440655622 56.50009702870298 0  -5.00112158765703 57.00008894860881 0  -7.437830639871603 43.0000483553068 0  -6.590131320008924 43.10824591866367 0  -7.199379074514472 43.33739364852885 0  -6.96092830371407 43.67473902609965 0  -6.828582132641924 42.77090009708683 0  -6.219332222111388 42.54175181669055 0  -6.56308785782443 49.00009150949975 0  -7.41076254561903 48.89188869516736 0  -6.801531702695852 48.6627455540422 0  -7.039976344310247 48.32539932687479 0  -7.172317948285923 49.2292344607904 0  -7.781546669192783 49.45837808561178 0  -6.563051754779578 46.00008586946016 0  -7.410739022893562 45.89188508718572 0  -6.801499147258454 45.66273893562744 0  -7.039947337989982 45.32539244653226 0  -7.172290891225031 46.22923152328407 0  -7.781528640573568 46.45837683765268 0  -6.562583984286437 7.000089223954543 0  -7.410433982702385 6.891887690368486 0  -6.801077175874334 6.662743221387888 0  -7.039571164116078 6.325397235268507 0  -7.17194005749649 7.229233671234689 0  -7.781294746414042 7.458378041103038 0  -7.437730659110928 30.00004775643121 0  -6.589977075251121 30.10824463724305 0  -7.199263832675998 30.33739171524165 0  -6.960797802658479 30.6747353838664 0  -6.828443155163087 29.77090039606325 0  -6.219154248373222 29.54175349153541 0  -6.562548586037031 4.000084888360393 0  -7.410412735483799 4.108225796397878 0  -6.801052450645025 4.337414446746869 0  -7.039555532873331 4.674743701686025 0  -7.171909703850177 3.770896353598308 0  -7.781272014479163 3.541708406068115 0  -6.562619896776125 10.00009006006665 0  -7.410459069786424 10.10822925282987 0  -6.80111684495077 10.33741845809014 0  -7.039613001747183 10.67474684709075 0  -7.171962864357726 9.770900945728066 0  -7.781307205045231 9.541711734584078 0  -6.562655871629978 13.00009082046804 0  -7.410480839638032 12.89188897765887 0  -6.801142001130208 12.66274484388762 0  -7.039628922863097 12.32539889346267 0  -7.17199396891924 13.22923507313511 0  -7.78133068883978 13.45837904871211 0  -6.562691915738491 16.00009225607022 0  -7.410504336343655 15.89188938379692 0  -6.801174506829716 15.6627463734758 0  -7.039657893977575 15.32540025963369 0  -7.172020995633837 16.22923515857045 0  -7.781348704216534 16.4583785959802 0  -6.562727907329664 19.0000823327724 0  -7.41052951164682 19.10822324722879 0  -6.801214299722431 19.33740923261084 0  -7.039699893229516 19.6747366656233 0  -7.172043868649697 18.77089555677921 0  -7.781361204442971 18.54170852262436 0  -6.562823835656147 27.00007910515014 0  -7.41059206496775 27.10822120887145 0  -6.801300837166488 27.3374077880527 0  -7.039777039182122 27.67473658982099 0  -7.172115807384809 26.77089190730375 0  -7.781409162683977 26.54170545433458 0  -8.269198224642199 19.093925037429 0  -8.025280046365856 18.81781664054681 0  -8.390679789736584 18.27085450684453 0  -8.634598127992218 18.54696290269619 0  -9 17.99999999998495 0  -8.269226984696132 27.09392401284856 0  -8.025318405608781 26.8178147445696 0  -8.390703768901361 26.27085264635639 0  -8.634612508025809 26.5469619896116 0  -9 25.99999999995395 0  -8.269186751671528 15.90612657614589 0  -8.025267396127338 16.18225263629175 0  -8.390675164433404 16.72918909633774 0  -8.634594360395095 16.45306314153112 0  -9 16.99999999998883 0  -5.731354542268591 30.09400515390548 0  -5.975254043610479 29.81787919786978 0  -5.609863191440084 29.27093931573445 0  -5.365963404609816 29.54706933113424 0  -5.000570083864075 29.00008471859289 0  -8.269175949831792 12.9061265490375 0  -8.02525298767106 13.18225278045028 0  -8.390666157484789 13.72918956294809 0  -8.634588959104136 13.45306331675425 0  -9 13.99999999999401 0  -8.269165838118065 10.09392784895441 0  -8.025236852660624 9.817819796309417 0  -8.39065279223712 9.270855851955039 0  -8.634581936804967 9.546963905341231 0  -9 8.99999999999857 0  -8.269144602132894 4.09392621315299 0  -8.025208613394314 3.817817384616708 0  -8.390635344965427 3.270854073606376 0  -8.634571417550116 3.546962921146692 0  -9 2.999999999998668 0  -8.26915441234669 6.9061259046536 0  -8.02522424949462 7.182251955895115 0  -8.390648183294356 7.729189047002484 0  -8.634578183393112 7.453063004786754 0  -9 7.999999999999485 0  -8.269294658231999 45.90612470572761 0  -8.025411317327791 46.18225067119438 0  -8.390765134579842 46.72918857556326 0  -8.634648314074989 46.45306261860078 0  -9 46.99999999997333 0  -8.269305468856855 48.9061262094549 0  -8.025425737284534 49.18225219547619 0  -8.390774144957566 49.72918883724061 0  -8.634653718348005 49.45306297838763 0  -9 49.99999999997949 0  -5.731563775779299 43.09400624108722 0  -5.975447643675552 42.81787896723819 0  -5.610080151193944 42.27093639677103 0  -5.366196010408527 42.54706817405466 0  -5.000826008635047 42.00008131100319 0  -5.726512404556908 23.91642891582284 0  -5.975250475529723 24.18415540357974 0  -5.612239229161485 24.72600384906243 0  -6.223987858893679 24.45188215922835 0  -5.363501458959833 24.45828149777941 0  -5.000492670561192 25.00008458108301 0  -8.274058964580135 52.08370036256893 0  -8.025358110881159 51.81597340314336 0  -8.388327480591576 51.2741235818508 0  -7.776656605483794 51.54824668964006 0  -8.637028519854242 51.54185053586992 0  -9 50.99999999998153 0  -5.726740660181871 38.08378054873452 0  -5.975453368774325 37.81603503289963 0  -5.612448232256381 37.27420563017335 0  -6.224166766976256 37.54828986382292 0  -5.363735210874958 37.54195602406734 0  -5.000727455997517 37.00007746337846 0  -5.726689678108716 34.91642804692899 0  -5.975414292071881 35.18415392339065 0  -5.612422740865081 35.72600133324614 0  -6.224138218756109 35.45188006036173 0  -5.363698381323717 35.45828018519111 0  -5.000709386222795 36.00008082664979 0  -7.88405973046986 50.50021519006847 0  -7.830358032018162 51.0242310493716 0  -8.442030548085665 50.75010736497587 0  -6.116881952986163 36.50008425657821 0  -6.170524476027896 37.02418651539607 0  -5.558804440963197 36.75009614459982 0  -6.170509972336952 35.97598164044827 0  -5.558796103499248 36.25009534687442 0  -5.977074135415871 25.26005320298261 0  -6.100530770346833 24.85596788749498 0  -5.488783440620034 25.13008460532993 0  -8.027621697074228 25.74584586902669 0  -7.904515188167448 26.14377565875308 0  -8.513811152902012 25.87292294867433 0  -6.942676679153793 34.37596525957352 0  -6.583406482420751 34.91392312016409 0  -6.840326490345269 35.23846319234673 0  -7.199596793801824 34.70050602945584 0  -7.456516082547727 35.02504664684667 0  -7.058174341059225 52.62415906491675 0  -7.417414526779517 52.08620333671005 0  -7.160516772598277 51.76166464584274 0  -6.801276691734769 52.29962062880253 0  -6.544378223110515 51.97508245384835 0  -6.942719731168657 38.62415851518527 0  -6.583444210350075 38.08622468066203 0  -6.840353292516519 37.76166796789813 0  -7.199628700779551 38.29960253722907 0  -7.456538496455554 37.9750463848822 0  -6.942565263737701 23.37596575389097 0  -6.583275598608117 23.91392423492335 0  -6.840209514675775 24.23846469104508 0  -7.19949928708908 23.70050680178952 0  -7.456432486241588 24.02504760692043 0  -7.884024683440168 17.50004018720827 0  -7.832692811888369 18.02087448515926 0  -8.442013028492884 17.75001985220545 0  -7.832686825902388 16.97920943961923 0  -8.442011654879584 17.25002022584716 0  -7.883975247831949 8.500041158610415 0  -7.832641094085175 9.020876453499609 0  -8.441988309324971 8.750020589794584 0  -7.931255763091102 2.415631368906658 0  -7.856263603702462 2.978669774020573 0  -8.465628536309008 2.70781581095065 0  -7.832635126581849 7.979209621846502 0  -8.441986940305322 8.250020550164727 0  -7.832803333428662 49.97929668944736 0  -8.442029178932689 50.25010772687273 0  -6.027203649776358 41.59318183236497 0  -6.12326813884679 42.0674671731
[...]
<PointData  Scalars="f_29"> 
<DataArray  type="Float64"  Name="f_29"  format="ascii">6.1480530729720350e+01  5.9401964816868592e+01  6.0069238869320706e+01  5.8659283426853129e+01  6.0805141712374457e+01  6.0139269263220179e+01  6.1483667424484850e+01  5.9403858228968879e+01  6.0072105651984060e+01  5.8662297217922962e+01  6.0806839700012794e+01  6.0140415621971023e+01  9.2236451173474876e+01  9.0156500291222315e+01  9.0824340648912738e+01  8.9414185693622940e+01  9.1559696945048358e+01  9.0893465966552853e+01  9.2228547075332713e+01  9.0252577011886800e+01  9.0823844950827919e+01  8.9420382504691730e+01  9.1652576625710907e+01  9.1082705575245299e+01  1.5092199129679483e+02  1.5300364925313411e+02  1.5159955518157736e+02  1.5226680575213879e+02  1.5233187122717882e+02  1.5374648969959938e+02  1.5374249205630775e+02  1.5176720045972030e+02  1.5233902608633369e+02  1.5093502634537083e+02  1.5316853894098796e+02  1.5259764165175218e+02  1.1177841757601247e+02  1.1385891902203586e+02  1.1245535678434061e+02  1.1312177572141916e+02  1.1319091641664487e+02  1.1460140629844540e+02  1.1459750623192811e+02  1.1253986895468832e+02  1.1319075272679497e+02  1.1178137159269858e+02  1.1394325453905857e+02  1.1329279857230490e+02  1.5653407220752342e+02  1.5862589100902761e+02  1.5722312508698661e+02  1.5790450713127962e+02  1.5793892687649566e+02  1.5935136696111854e+02  1.5653528034531769e+02  1.5862621682921815e+02  1.5722360637392416e+02  1.5790483170241188e+02  1.5793959706174158e+02  1.5935177105651860e+02  1.2018865862853217e+02  1.2049133285400545e+02  1.2113156338279445e+02  1.2207459403400865e+02  1.1954821330012847e+02  1.1890833022320410e+02  1.3695716377391341e+02  1.3665487603348222e+02  1.3601456322634797e+02  1.3507198841247168e+02  1.3759748609955659e+02  1.3823727282659996e+02  1.2857496368077727e+02  1.2827148847419201e+02  1.2763195106787910e+02  1.2668883971494951e+02  1.2921437891956327e+02  1.2985371030060418e+02  1.9554139215948652e+01  1.9251121031270287e+01  1.8611789755998053e+01  1.7669475864618942e+01  2.0193520463910914e+01  2.0832489075600787e+01  8.3828198624082972e+01  8.4131089460819993e+01  8.4771199596347927e+01  8.5714507871408202e+01  8.3188284702871059e+01  8.2548317711784406e+01  1.1175320829678325e+01  1.1477268246755571e+01  1.2117386675417150e+01  1.3059463567881599e+01  1.0535017873261022e+01  9.8951595094534639e+00  2.7933789004604339e+01  2.8236643111917449e+01  2.8876095058603042e+01  2.9818338110677306e+01  2.7294291619059166e+01  2.6655351837519856e+01  3.6312623833554298e+01  3.6009959474650920e+01  3.5370400004261143e+01  3.4428217339536332e+01  3.6952172536026147e+01  3.7591387875159242e+01  4.4691860121710882e+01  4.4389695747263005e+01  4.3749597341352434e+01  4.2807368342109569e+01  4.5331954746789542e+01  4.5971487921363263e+01  5.3073848518217588e+01  5.3377254207360792e+01  5.4016951340422850e+01  5.4960315231716109e+01  5.2434366122130150e+01  5.1795208302678951e+01  7.5445008702874603e+01  7.5747727746848895e+01  7.6387580114052398e+01  7.7330336941059215e+01  7.4805031957670721e+01  7.4165133555327671e+01  5.3337786585597669e+01  5.2566781118855751e+01  5.1041954067242209e+01  5.1811623293476586e+01  5.0293355501467623e+01  7.5708398553901503e+01  7.4936849019886338e+01  7.3410204103483665e+01  7.4180454739348818e+01  7.2658379209850267e+01  4.4429188630999157e+01  4.5200190390264339e+01  4.6725748771101678e+01  4.5954418821386540e+01  4.7472237913986525e+01  8.4091056811139339e+01  8.3319854923459516e+01  8.1793501462359714e+01  8.2563439573673563e+01  8.1041973157171299e+01  3.6049305936863576e+01  3.6820199960080274e+01  3.8345333447821652e+01  3.7575734897166207e+01  3.9095768109532337e+01  2.8197655128156480e+01  2.7426718669794901e+01  2.5902262959589567e+01  2.6671842419600416e+01  2.5153766440633294e+01  1.1437841373791757e+01  1.0666578350921265e+01  9.1402960613437330e+00  9.9118451150728415e+00  8.3923862456542899e+00  1.9289806379098266e+01  2.0061037545482364e+01  2.1586466290496368e+01  2.0815024634732083e+01  2.2332849512774811e+01  1.2831079356952091e+02  1.2908208333163913e+02  1.3060796159139085e+02  1.2983799751594046e+02  1.3135872594992566e+02  1.3669436352594872e+02  1.3746567106151119e+02  1.3899185030325097e+02  1.3822020765697840e+02  1.3973866460798214e+02  1.2045194071478984e+02  1.1968037007550092e+02  1.1815435636640539e+02  1.1892453410611891e+02  1.1740449417967915e+02  6.6826683186940301e+01  6.7574758655841251e+01  6.9086971026933725e+01  6.8322939535898797e+01  6.8340214499701744e+01  6.9847687708587898e+01  1.4557822829777987e+02  1.4483008721893074e+02  1.4331896108566679e+02  1.4408154903797492e+02  1.4406564932914915e+02  1.4256108189051250e+02  1.0643509453850697e+02  1.0568688932811322e+02  1.0417577204536640e+02  1.0493838568279423e+02  1.0492248682384587e+02  1.0341785489392356e+02  9.7578282639882403e+01  9.8326808717929040e+01  9.9838950657812006e+01  9.9075415507702658e+01  9.9090266182926285e+01  1.0059484874850241e+02  1.4115045634282444e+02  1.4261669041477526e+02  1.4185033340958671e+02  1.0200676183742161e+02  1.0347330137449634e+02  1.0270679524451197e+02  1.0054030240334650e+02  1.0130514750180329e+02  7.0581866288222784e+01  6.9452054909046666e+01  7.0218775820612947e+01  7.1940502481628442e+01  7.3053157368528360e+01  7.2295511911465638e+01  9.6069779621999288e+01  9.7572885006034042e+01  9.8480156777505158e+01  9.6977107900302244e+01  9.7884417667525256e+01  1.4708806119634713e+02  1.4558425869574995e+02  1.4467683359944357e+02  1.4618038655867767e+02  1.4527273282796185e+02  1.0794411953891792e+02  1.0644086721552110e+02  1.0553362658245013e+02  1.0703679782401117e+02  1.0612947354396159e+02  6.5316800337772193e+01  6.6820076711454931e+01  6.7726865999946497e+01  6.6223735106816463e+01  6.7130473350046302e+01  4.8883008516076174e+01  5.0339772806527023e+01  4.9582764572259904e+01  4.7426448206265420e+01  4.8181955500334702e+01  2.3743740054867615e+01  2.5200261967438429e+01  2.4443279627854281e+01  6.7469040879577271e+00  8.3219080491118333e+00  7.5655908577955779e+00  2.2287344716668287e+01  2.3042598990888312e+01  1.3969305774929867e+02  1.4044890786616918e+02  1.1625528269099894e+02  1.1758229693440543e+02  1.1682576962475881e+02  6.8991296511709692e+01  6.8657213895829415e+01  6.8060763152074529e+01  1.4303907617317498e+02  1.4356022023151382e+02  1.4415587239930727e+02  1.0390163891002970e+02  1.0441987665808426e+02  1.0501556835153634e+02  1.0011870695297574e+02  9.9597170841264528e+01  9.9001536627234685e+01  8.0303606227716358e+01  8.1426297661071402e+01  8.0668824252112032e+01  1.2217377930994537e+02  1.2054113020097142e+02  1.2212427668995461e+02  1.3497348019468745e+02  1.3660528964090969e+02  1.3502256115359705e+02  1.2658943847270386e+02  1.2822162989947881e+02  1.2663899320479699e+02  1.7570075461204613e+01  1.9201148212777863e+01  1.7619734520444030e+01  1.3158131792492215e+01  1.1526850517106437e+01  1.3108805986222601e+01  8.5836065127359319e+01  8.4192067061891450e+01  8.5775603440092539e+01  2.9917507541881768e+01  2.8286546418221533e+01  2.9867964423340798e+01  3.4329219395536171e+01  3.5960224880998084e+01  3.4378668439257972e+01  4.2708965115944501e+01  4.4340141313581142e+01  4.2757998494945753e+01  5.5081999442160608e+01  5.3438489943244697e+01  5.5021511911904454e+01  7.7429723200715301e+01  7.5797505434060966e+01  7.7380087433767599e+01  7.3252859809353936e+01  7.3708895598757522e+01  7.4349133927650115e+01  5.0770239668712371e+01  5.1282634539413181e+01  5.1922087812885977e+01  4.6975192665548114e+01  4.6473444621834695e+01  4.5833484324568218e+01  8.1608421042260787e+01  8.2078300923398771e+01  8.2718369090023359e+01  3.8564139659953412e+01  3.8077819886829694e+01  3.7438359754771369e+01  2.5651148463567051e+01  2.6153104660407788e+01  2.6792536030915262e+01  9.2582264584475347e+00  9.5765570587086088e+00  1.0216894442565497e+01  2.1836656948388555e+01  2.1334684993991072e+01  2.0695326834407194e+01  1.1796356249296021e+02  1.1843581940194420e+02  1.1907636661416846e+02  1.3924140072599843e+02  1.3873944698715280e+02  1.3809922431472310e+02  1.3082715811559316e+02  1.3034047945072200e+02  1.2970104438972879e+02  1.1477388857537383e+02  1.1542613494877708e+02  1.5514010482836093e+02  1.5370366504904442e+02  1.5443870190547258e+02  1.5513944669601210e+02  1.5386856336214848e+02  1.5444019858565417e+02  1.5652203829133151e+02  1.5583628121977637e+02  1.5652248170180465e+02  1.5583666930469894e+02  3.9521565565294137e+00  5.7687785817113530e+00  4.3716359880462710e+00  4.7909365274884577e+00  5.3488884085308346e+00  1.6559448140845899e+02  1.6560190608421078e+02  1.6667099262394305e+02  1.6560917097914285e+02  1.6666377878268446e+02  1.6773306302269600e+02  1.6559440664122266e+02  1.6560192677808277e+02  1.6667109324925613e+02  1.6666377930386892e+02  1.6773306302269600e+02  1.6125278062602698e+02  1.5957871717111510e+02  1.6029930863974309e+02  1.6125294363575964e+02  1.5957901027055902e+02  1.6029960094678512e+02  2.1638553474481417e+00  2.1706223836162906e+00  1.0890255794397752e+00  2.1778178833667821e+00  1.0819477011749861e+00  0.0000000000000000e+00  6.2423672993545772e+01  6.1385171010128552e+01  6.2629679268658151e+01  6.1179666203390838e+01  6.2219242350125597e+01  9.3175390746706839e+01  9.2136913802986129e+01  9.3379888098497460e+01  9.1932694359299660e+01  9.2972274033150114e+01  1.1083783846943427e+02  1.1187657080749524e+02  1.1063175644053945e+02  1.1208225813683134e+02  1.1104242961565713e+02  1.5018681097242441e+02  1.5122684977463607e+02  1.5083242983790461e+02  1.4979363650879520e+02  1.4939852785921656e+02  2.1372970263307187e+00  2.1573520792911505e+00  1.0891528252440601e+00  1.0686304006830569e+00  0.0000000000000000e+00  5.7888558496348175e+01  5.9014019832400564e+01  5.8276077793703557e+01  8.8643036133866701e+01  8.9768359877218344e+01  8.9030768749956366e+01  1.1534019347646466e+02  1.1423090776337639e+02  1.1496860052509244e+02  1.5370410752057882e+02  1.5514012525048261e+02  1.5514016773551816e+02  1.5652230351086462e+02  1.5514002744800794e+02  1.5652248092970225e+02  1.5386864690949304e+02  1.1464315058033569e+02  1.1612384129348898e+02  1.1599318060444470e+02  5.9564546592499035e+01  5.9852165997714266e+01  6.1097560375687657e+01  5.9851607533385661e+01  6.1384738159242119e+01  9.0127570682426267e+01  9.0510136957699203e+01  9.1754101788317797e+01  9.0604903936539756e+01  9.2231210986356444e+01  1.5180725204309229e+02  1.5203735497093945e+02  1.5060264666877447e+02  1.1369738733740610e+02  1.1349504161733454e+02  1.1484542717346864e+02  1.1196167409302797e+02  1.1216412988276704e+02  1.1340992526138298e+02  1.5765467801341086e+02  1.5777987248951027e+02  1.5639739448377870e+02  1.5777969143951307e+02  1.5900436214555762e+02  1.5887913934959090e+02  1.6010323867787295e+02  1.5220242273252364e+02  1.5347360197592880e+02  1.5900451960631696e+02  6.2581547210534758e+01  6.1360535263501120e+01  6.2604877621284551e+01  9.3333058809442250e+01  9.2207954017142328e+01  9.3355973929944938e+01  1.1068011872885903e+02  1.1198595316514250e+02  1.1065666816033342e+02  4.9827076066811358e+01  4.7928696957378207e+01  2.4697930318993073e+01  8.0031731886524309e+00  2.2789748048401890e+01  1.4019551537194297e+02  1.5086211999648705e+02  1.4965787777560635e+02  1.4991653854125556e+02  1.5125683727529116e+02  4.8882737551323942e+01  4.7928886986905468e+01  4.8882938620290382e+01  4.9826518693833400e+01  2.3743889326140980e+01  2.2790209804613099e+01  2.3743842104104711e+01  6.9838332135347523e+00  8.1211292838011993e+00  6.8655541822433648e+00  2.4697576261983340e+01  1.4114961403230726e+02  1.4019542366228251e+02  1.4115009901463259e+02  5.6976142535366137e+01  5.8727056619404422e+01  5.8270093629769462e+01  5.7432852974751263e+01  8.7730326599048439e+01  8.9385847497069307e+01  8.8928791827843796e+01  8.8187110947246182e+01  1.1451822724822399e+02  1.1566615417295455e+02  1.1710933809073292e+02  1.1697857307420709e+02  1.6386173687051411e+02  1.6202403726528931e+02  1.6332896973018720e+02  1.6279634280278819e+02  1.6255759893613109e+02  1.6386179188812898e+02  1.6202411041127093e+02  1.6332900674928788e+02  1.6255766428258778e+02  1.6067735570527941e+02  1.6067722313515245e+02  4.0063755106992865e+01  3.8827211679860660e+01  3.9583908162722260e+01  1.3232718420817034e+02  1.3109010582077866e+02  1.3184708646740771e+02  1.4209521847110983e+02  1.0106226526452552e+02  1.0295469171329898e+02  1.4209436862988886e+02  1.0200687189361693e+02  1.0106273840771266e+02  1.0200683788505989e+02  1.0295429533998426e+02  7.1253055387353967e+01  7.2596723864211270e+01  7.2253035842948051e+01  7.1596684331822615e+01  8.3828518688531659e+01  8.2434378618489490e+01  8.3959709808820520e+01  4.4690866712945891e+01  4.4560004753596317e+01  4.6083384959104748e+01  5.3075717240631910e+01  5.1683008504830021e+01  5.3206729743813746e+01  7.5446139960794326e+01  7.4051353431269192e+01  7.5577280832090779e+01  1.1176036939020394e+01  9.7826432876660050e+00  1.1306983424506015e+01  1.9551220303358122e+01  1.9420413178185992e+01  2.0943966026412774e+01  2.7935905685009196e+01  2.6543253958512999e+01  2.8066825065686615e+01  3.6311322171630302e+01  3.6180319153506176e+01  3.7704604771534207e+01  1.2857304492746906e+02  1.2844192708921992e+02  1.2996693326153948e+02  1.3695614388163753e+02  1.3682522825740858e+02  1.3834922989500373e+02  1.2018972296080146e+02  1.1879572903199157e+02  1.2032084886552137e+02  5.8625981836051629e+01  5.7331814274584289e+01  5.7686522105128880e+01  8.9295119389425949e+01  8.8096558934865158e+01  8.8462214897294075e+01  7.9344810560600976e+01  7.8439455500199927e+01  7.9449203386126598e+01  7.8334992631081576e+01  7.9240549505329383e+01  1.2427893751897658e+02  1.2327792196738703e+02  1.2438178189650870e+02  1.2317462809084144e+02  1.2417590056677263e+02  1.2448468035081270e+02  1.2548554210751307e+02  1.2558881866699247e+02  1.2458782460978389e+02  8.0956049454491378e+01  7.9876234311706511e+01  8.0528823662016606e+01  5.8913392697482763e+01  8.9772398379107216e+01  5.8872384942632525e+00  6.1852413399835442e+01  9.2605363261880683e+01  1.5055367962977272e+02  1.1140943149730180e+02  5.8176310834607882e+01  8.8941634803775855e+01  6.9786554045761548e+01  7.0122091649123078e+01  7.0917614852490985e+01  9.5822996335288195e+01  9.7449193884941252e+01  9.5946205314902230e+01  1.4733429778246176e+02  1.4570775551161509e+02  1.4721152515426095e+02  1.0815792258944087e+02  1.0654815519486750e+02  1.0805123570673769e+02  6.5103509091107554e+01  6.6713210317452535e+01  6.5209940514949466e+01  3.2123328300730428e+01  3.3226277390848530e+01  3.2123286551633377e+01  3.3226356611999812e+01  3.2123365740476892e+01  3.1020356787648570e+01  3.1020371402286898e+01  1.5364224553360788e+01  1.6467293606317892e+01  1.5364449705564533e+01  1.6467122576475052e+01  1.5364049218252291e+01  1.4261270278815564e+01  1.4261041820511286e+01  1.6145025900307709e+02  6.7060902433808721e+01  6.6944153495934657e+01  6.8455060419349110e+01  1.4534431174943015e+02  1.4395119842761460e+02  1.4546098131697107e+02  1.0620136130302294e+02  1.0480804374225158e+02  1.0631796348647747e+02  9.7811673009586528e+01  9.7695181201161191e+01  9.9205096045855825e+01  8.1156063036300083e+01  8.0302629259648171e+01  8.0198354234107398e+01  1.2603382906628900e+02  1.2520761063290784e+02  1.2510509479356216e+02  1.2273010569653505e+02  1.2355606931026976e+02  1.2365878328772807e+02  4.0707455887122464e+01  3.9313823324079351e+01  3.9635748645637157e+01  4.0385732584292725e+01  1.3297132545574615e+02  1.3157701296998624e+02  1.3189920511252447e+02  1.3264936589202000e+02  0.0000000000000000e+00  0.0000000000000000e+00  1.0889684339689427e+00  1.6773306302269600e+02  1.6773306302269600e+02  1.6667109139677225e+02  1.6773306302269600e+02  0.0000000000000000e+00  6.2031881384045903e+01  9.2782033775332863e+01  1.5042628781521142e+02  1.1123329516576825e+02  1.6472833898002509e+02  1.6473524401347888e+02  1.6472824694548220e+02  1.6473527833973063e+02  8.5042927135907398e+00  7.1978852918238942e+00  8.4452985757309289e+00  8.3911888360690234e+00  7.2582551223531482e+00  6.0115588112643756e+00  6.3842517980845322e+01  6.3866584229793311e+01  9.4578053633571898e+01  9.4601456211311643e+01  1.0941903726598585e+02  1.0939474222464005e+02  1.4862497001641464e+02  1.4836665705897636e+02  5.6383690608923935e+01  5.6029171592250130e+01  8.7148592934007922e+01  8.6783354852880606e+01  5.5792184420886199e+00  5.7977054926423026e+00  6.9842332897113675e+00  3.0577789241741877e+00  3.0651450863787231e+00  4.1386793564729309e+01  4.1707989455371120e+01  1.3365077456292184e+02  1.3397215866461590e+02  3.8132478040192725e+00  2.9751358144590041e+00  2.9955900950592138e+00  4.0982364838259393e+01  4.2305392286109246e+01  4.1907331856401562e+01  1.3324614321475357e+02  1.3456971473213639e+02  1.3417147840811742e+02  6.4512686707426511e+01  6.3571184225607098e+01  6.3365894408287609e+01  9.5300053485235878e+01  9.4339949811032810e+01  9.4136064658937528e+01  1.0871457460342441e+02  1.0967319589374051e+02  1.0987859292790590e+02  1.4794412151328683e+02  1.4867142510567618e+02  1.4906531795285886e+02  5.6775871108903715e+01  5.5473699247884284e+01  5.5859589531821875e+01  8.7541142347742522e+01  8.6227990547465680e+01  8.6614831635019300e+01  5.4677078413709816e+00  4.0712321943470879e+00  4.1898516314401011e+00  1.3415878205793769e+02  1.3270322361644062e+02  1.3210946694228358e+02  1.3124779558182709e+02  1.3356510499877930e+02  2.3743957480545276e+01  2.4503117586841384e+01  2.5262180811697210e+01  2.2984737497898383e+01  2.2225754615630713e+01  5.0248485478102197e+01  4.8805873779625976e+01  4.8123079171694187e+01  4.7363561095346697e+01  4.9565690752722112e+01  3.0737338047412127e+01  3.2114981833879739e+01  3.2807923016785800e+01  3.3492629433975893e+01  3.1430334992473849e+01  1.3978961168265343e+01  1.5356582994089976e+01  1.6049314357766388e+01  1.6734234948069517e+01  1.4671722877938150e+01  4.1894348017619436e+01  3.9845741624214746e+01  4.1300941150253415e+01  4.0439196453793926e+01  3.8984101655952870e+01  5.5515358968455558e+01  5.6246061411383756e+01  5.6701533408338392e+01  8.6361782581329308e+01  8.7046372369854652e+01  8.7502037533159353e+01  1.1770664808256706e+02  1.1684965590705104e+02  1.1652384016883025e+02  6.9586471602985867e+01  7.0420030158340424e+01  7.0763015118826189e+01  7.8116271470095896e+01  7.8783132244453341e+01  7.9209622377411947e+01  7.1678023998660223e+01  7.2013031592901910e+01  7.2773653525704546e+01  1.0055502610025565e+02  1.0275764373991039e+02  1.0128082102455193e+02  1.0203162124715384e+02  1.0350812684042941e+02  1.4260874280562152e+02  1.4111910996932230e+02  1.4038961632662688e+02  1.3962973779309996e+02  1.4187929625665194e+02  5.4014838519976305e+00  6.4980324476944036e+00  5.4209651502557740e+01  5.4601513184956090e+01  7.6569059423908143e+01  7.7834409636575941e+01  7.6973906629433387e+01  7.8236210109099162e+01  2.9057526756462746e+01  3.0321755879719657e+01  2.9461715212175182e+01  3.0721619555553904e+01  1.2131277705933516e+02  1.2257800858462150e+02  1.2171691516282857e+02  1.2297627520454721e+02  3.5189291367101696e+01  3.3925041034687723e+01  3.4785181192716529e+01  3.3525163209609403e+01  1.3583407830793431e+02  1.3543035111732738e+02  1.2745019260652870e+02  1.2618530646661399e+02  1.2704615447980397e+02  1.2578714567614547e+02  1.8430019578189626e+01  1.7165663864885460e+01  1.8025637151164368e+01  1.6765712474755183e+01  1.2297922908440393e+01  1.3562274031422410e+01  1.2702093092791404e+01  1.3962124599389524e+01  4.3569240498406941e+01  4.3165688023336905e+01  8.4963394163765685e+01  8.5355406028711528e+01  9.6300483903605752e+01  9.5421117041841768e+01  9.5024300390959297e+01  9.6700768390169074e+01  1.0771268863687577e+02  1.0857584665692485e+02  1.0898869515083393e+02  1.0729640025716557e+02  1.4685547875982820e+02  1.4773552198898028e+02  1.4812923285420450e+02  1.4645600071850299e