<?xml version="1.0"?>
<VTKFile type="UnstructuredGrid"  version="0.1"  >
<UnstructuredGrid>
<Piece  NumberOfPoints="2690" NumberOfCells="4864">
<Points>
<DataArray  type="Float64"  NumberOfComponents="3"  format="ascii">-5.052749167983558 22.0115661016078 0  -5.646524223439208 21.27417678909876 0  -5.051702541929801 21.51251381212932 0  -5.050482326358554 21.0116304823209 0  -5.647560595175947 21.77438683298859 0  -6.242387872277759 21.53534100914236 0  -9 21.99999999996945 0  -8.404576582548929 21.2649169537619 0  -9 21.49999999997139 0  -9 20.99999999997333 0  -8.404760702482349 21.76490344591533 0  -7.809348025458105 21.52977665035977 0  -9 32.9999999999446 0  -8.408612521831586 32.26487934476225 0  -9 32.49999999994358 0  -9 31.99999999994255 0  -8.408796565783362 32.76488280903716 0  -7.817418819640037 32.52973823327189 0  -5.079531679476071 33.01250505216925 0  -5.58749468265116 32.30873132925606 0  -5.0784368315391 32.5141648332213 0  -5.077148153788642 32.01210248613986 0  -5.588564983180248 32.80905099308286 0  -6.097613949978081 32.60380503499851 0  -5.131301321639922 54.01192883048179 0  -5.716091067355605 54.74887356467062 0  -5.715069558001635 54.2493707509735 0  -6.298697900677346 54.48506289654306 0  -5.132487921329604 54.51280521977177 0  -5.133562339748266 55.01205433500274 0  -9 54.99999999998974 0  -8.487406622043176 54.29815525051285 0  -9 54.49999999998872 0  -9 53.99999999998769 0  -8.487567863081487 54.79810588998174 0  -7.975007637616879 54.59622763880053 0  -9 39.99999999995897 0  -8.411738001189494 40.73984185193477 0  -8.411553932302422 40.23984435972244 0  -7.823283558209088 40.47965428194624 0  -9 40.49999999996 0  -9 40.99999999996102 0  -5.099099799534066 41.01107016554484 0  -5.659830260480719 40.27973182374753 0  -5.098015396902105 40.51286124092188 0  -5.096823615403664 40.01246422930521 0  -5.660868719687755 40.77954406406181 0  -6.222686770005091 40.54599636116823 0  -9 55.99999999999179 0  -8.441596308456033 56.74549524403644 0  -8.441436816279523 56.2454641328472 0  -7.883040652274254 56.49092747420574 0  -9 56.49999999999282 0  -9 56.99999999999384 0  -5.136229355959154 56.0113964971216 0  -5.696283767268545 56.75475760903468 0  -5.695273735912473 56.25470939586821 0  -6.254142987382565 56.49658792498862 0  -5.137489999354867 56.51318816785919 0  -5.138560669337611 57.0120893146275 0  -7.478162303560864 43.00654840212227 0  -6.652516890060718 43.11839917165785 0  -7.246233318392442 43.34499640692509 0  -7.014400253095598 43.68345366548428 0  -6.884349620858544 42.77987973926496 0  -6.29036990334708 42.55321393011096 0  -6.634815509392149 49.01235856258194 0  -7.457432748086601 48.89981464511555 0  -6.865778430772201 48.6738231770029 0  -7.096847852972568 48.33525089930896 0  -7.226372154842199 49.23832530761845 0  -7.817754289440738 49.46438063034682 0  -6.630343111806246 46.01160873244127 0  -7.454517907628886 45.89933070581117 0  -6.861756795140926 45.6729384905758 0  -7.093272047262117 45.3343280735906 0  -7.223009605729302 46.23793264154092 0  -7.815508304030564 46.46421294539496 0  -6.572597949842216 7.012021647877538 0  -7.416860840723254 6.89965583876798 0  -6.809665852411855 6.673479741269085 0  -7.046835671710479 6.334940699301955 0  -7.179698040018537 7.238193156784918 0  -7.786631498557851 7.464355763331832 0  -7.465751928320433 30.00647446997396 0  -6.633368834237051 30.11823508018452 0  -7.23193257097537 30.34474546652114 0  -6.998211365221548 30.68297651857751 0  -6.867093050572164 29.77992558240455 0  -6.268263625519898 29.55344060991413 0  -6.568326002868455 4.011446299366155 0  -7.414296655085713 4.115638871545577 0  -6.806681482248145 4.347764526266276 0  -7.044948848847269 4.684044946191868 0  -7.176035176051852 3.779334934417398 0  -7.783887916355202 3.547298898418465 0  -6.576965666819314 10.01212579865919 0  -7.419910493438577 10.11609312834828 0  -6.814489161466072 10.34829240003849 0  -7.051921100740287 10.68445944644178 0  -7.182471014428781 9.779937761831626 0  -7.788146038955796 9.547735668941014 0  -6.581344564115046 13.01223175861255 0  -7.422559202863709 12.89982506242309 0  -6.817551082558356 12.67369382049536 0  -7.05385888325246 12.33515977401698 0  -7.186255149222136 13.23837690171364 0  -7.791002487583112 13.46448769337253 0  -6.585745954810398 16.01241898564595 0  -7.42543393277873 15.89987981836489 0  -6.82152019721264 15.67389475225209 0  -7.057397914578097 15.33534044423853 0  -7.189564306894299 16.23838949497118 0  -7.793212548189179 16.46443003615089 0  -6.590234288910869 19.01112215891588 0  -7.428572416693779 19.11530938966563 0  -6.826488689549292 19.3470897889032 0  -7.06263907057689 19.68312753907488 0  -7.192413641319967 18.77923580094699 0  -7.794769520217902 18.54731724134719 0  -6.602098636558225 27.01070647959039 0  -7.43631048191462 27.11504901675467 0  -6.837178498723198 27.34690860285475 0  -7.07216294667214 27.68312747882821 0  -7.201322666133519 26.77876433908429 0  -7.80071343519747 26.54691949493983 0  -8.277486691385752 19.09717767350437 0  -8.036169842748377 18.82222913934139 0  -8.397282771680972 18.27369097111709 0  -8.638619577267159 18.54863957091449 0  -9 17.99999999998495 0  -8.281045676409184 27.09704667246037 0  -8.04092016537429 26.8219845377307 0  -8.400256907293954 26.27344908116359 0  -8.640401782380231 26.54852116110737 0  -9 25.99999999995395 0  -8.2760571822913 15.90978354453527 0  -8.034593686178328 16.18711337531505 0  -8.396706662132736 16.73218881402138 0  -8.638150214355713 16.45487273498935 0  -9 16.99999999998883 0  -5.79019651543779 30.10804728071504 0  -6.029186210805966 29.83072992930192 0  -5.669171037590984 29.28522500307661 0  -5.430162953905725 29.5630868526512 0  -5.069666047090212 29.01155126751007 0  -8.274734306159102 12.90977885079264 0  -8.032827762425887 13.18713084135088 0  -8.395599778693253 13.73224889214061 0  -8.637487263661324 13.45489503775072 0  -9 13.99999999999401 0  -8.273504224930896 10.09754488488668 0  -8.0308650440174 9.82264075486607 0  -8.393974087192277 9.273865932683 0  -8.636633083115562 9.548770140837366 0  -9 8.99999999999857 0  -8.270931646644044 4.097329878825629 0  -8.027446001646384 3.822324034834557 0  -8.391864130972751 3.273632665905808 0  -8.635360239933892 3.548640941523572 0  -9 2.999999999998668 0  -8.272115611599364 6.909694172881583 0  -8.029333125142218 7.187022669676762 0  -8.393413840151949 7.732181327235858 0  -8.636176865138914 7.454854141414899 0  -9 7.999999999999485 0  -8.28942906289736 45.909544362021 0  -8.052427787517285 46.1868651693153 0  -8.407854029826911 46.73212756704341 0  -8.644835502728315 46.4548079524488 0  -9 46.99999999997333 0  -8.290769694464721 48.90974696750069 0  -8.054219951143516 49.18707033498931 0  -8.408979268572804 49.73216311101098 0  -8.645508791728956 49.45485662117036 0  -9 49.99999999997949 0  -5.816182994682805 43.10818823031673 0  -6.053231744583926 42.83069666837311 0  -5.696126494442686 42.2848375919991 0  -5.45906307877322 42.56293735761819 0  -5.101455248414451 42.01108139379547 0  -5.773254236820401 23.93060383229154 0  -6.018927218306738 24.19709029697844 0  -5.662276120810729 24.74029551179071 0  -6.2645131629464 24.4636150423754 0  -5.416664274182707 24.47435716404682 0  -5.060149068307107 25.01149626183007 0  -8.296809440357775 52.08691337831744 0  -8.055740859798167 51.82035669701148 0  -8.407189588658058 51.27694837461088 0  -7.81458905710665 51.5538327114174 0  -8.648281578512668 51.5435043617403 0  -9 50.99999999998153 0  -5.801513356342895 38.09780095271836 0  -6.044046205806326 37.82873753146706 0  -5.688145296612811 37.2881168716827 0  -6.286664808556313 37.55971381859997 0  -5.44559165830205 37.55783796133908 0  -5.089173804092006 37.01056662937656 0  -5.795176441899649 34.93049221835793 0  -6.039190470994659 35.19689588464865 0  -5.68498138272051 35.73995683091097 0  -6.283117675835631 35.46333624063897 0  -5.441020884684802 35.47418304314598 0  -5.086966540264283 36.0109728513246 0  -7.917938290284795 50.50554705499916 0  -7.866245653072818 51.02970450487334 0  -8.459055665598305 50.75274303140499 0  -6.179963441540043 36.51141977816656 0  -6.233327091424944 37.03549486360025 0  -5.634607164337569 36.76304174546205 0  -6.231525040478097 35.98730296510698 0  -5.633562013041278 36.2629150631158 0  -6.022654370820465 25.27251879491977 0  -6.143558549161485 24.86809200554062 0  -5.541465433299426 25.1441192949189 0  -8.042562425052342 25.74996990584892 0  -7.921608265294391 26.14844431001678 0  -8.521318227960288 25.87498684859715 0  -6.985034416534251 34.38433555693756 0  -6.63395586376865 34.92390162366311 0  -6.885927503020038 35.24731292341176 0  -7.237020632039634 34.70784225820442 0  -7.488903862942919 35.03132843960869 0  -7.119685852455672 52.632510344057 0  -7.467015157162428 52.09323325542984 0  -7.21779754815504 51.77000118889307 0  -6.870480584510362 52.30931356736025 0  -6.621169891917598 51.98615008885507 0  -6.990384765227868 38.63245845925537 0  -6.638644751628252 38.09615270988903 0  -6.889258245119983 37.77048119568735 0  -7.24098582738998 38.30688832650655 0  -7.491689252808341 37.98129338966438 0  -6.971257545216949 23.38439738681441 0  -6.617766711593177 23.92404662290232 0  -6.871453653525477 24.24751023344866 0  -7.224960206444199 23.7079418174968 0  -7.478560738973174 24.03145382264484 0  -7.895593292202024 17.50541817919211 0  -7.845163949087653 18.02638497686558 0  -8.447882224757235 17.75267760181111 0  -7.844418842306045 16.9849304270103 0  -8.447711165835868 17.25272650686096 0  -7.889550680524009 8.505543827781521 0  -7.838832703270834 9.02664084741358 0  -8.444858012410162 8.752773148890855 0  -7.93296539273636 2.420413632803859 0  -7.858393121568959 2.983841627751159 0  -8.466560869129655 2.710223072862199 0  -7.838107221847657 7.984952829841358 0  -8.444691594183606 8.252768012932824 0  -7.867862903987059 49.98497069774841 0  -8.458882009768304 50.25279149495493 0  -6.101428098144241 41.60431420810125 0  -6.195926506731162 42.07881391167853 0  -5.6014829
[...]
<PointData  Scalars="f_29"> 
<DataArray  type="Float64"  Name="f_29"  format="ascii">3.3282298710814604e+02  3.2140851797643046e+02  3.2506651899920996e+02  3.1732277097656623e+02  3.2911838319601776e+02  3.2544502150042905e+02  3.3274784155037003e+02  3.2133411214637317e+02  3.2498993295745294e+02  3.1724280100204589e+02  3.2904453553256127e+02  3.2540044017103389e+02  5.0311630037597268e+02  4.9152827669131079e+02  4.9523818070369009e+02  4.8737284142845112e+02  4.9935721668327534e+02  4.9565633800408079e+02  5.0315570611443223e+02  4.9213573696928091e+02  4.9531668868692526e+02  4.8749614206134305e+02  4.9994790043994874e+02  4.9675865092329838e+02  8.3556991893186546e+02  8.4753693505229000e+02  8.3946698395761234e+02  8.4328949399261739e+02  8.4367252840733204e+02  8.5181009595492014e+02  8.5170550918856895e+02  8.4035571492828547e+02  8.4363186988250663e+02  8.3555726868179761e+02  8.4841781181139720e+02  8.4514748306085414e+02  6.1274124656314552e+02  6.2449067637038559e+02  6.1657502739169558e+02  6.2034995452304599e+02  6.2070738786370600e+02  6.2866359764182153e+02  6.2873452460245869e+02  6.1712275785276177e+02  6.2079219474162119e+02  6.1283799833820626e+02  6.2504572277001307e+02  6.2136203527713337e+02  8.6778034518754555e+02  8.7984718188704107e+02  8.7176430796554723e+02  8.7570519353103941e+02  8.7587555235144112e+02  8.8401484797074738e+02  8.6786021409818022e+02  8.7990652675757553e+02  8.7182735837518351e+02  8.7574366780967364e+02  8.7594834659271339e+02  8.8408942274186109e+02  6.6026945943296380e+02  6.6199531388786102e+02  6.6561037039186897e+02  6.7095547105357105e+02  6.5665799129527954e+02  6.5304800126983912e+02  7.5554403835050641e+02  7.5379808968819475e+02  7.5016062580462824e+02  7.4477990423341703e+02  7.5918465550428164e+02  7.6282145843047761e+02  7.0782663110484179e+02  7.0608392723301358e+02  7.0246898274877185e+02  6.9711183566595776e+02  7.1144520083953864e+02  7.1506192999657492e+02  1.0470069555096933e+02  1.0304837264092660e+02  9.9625882762984261e+01  9.4552849721827201e+01  1.0812645361463626e+02  1.1154891829346464e+02  4.5630594442921057e+02  4.5800298099288113e+02  4.6155574403735278e+02  4.6681066311115302e+02  4.5275928766897209e+02  4.4921309154276332e+02  5.9713867139917724e+01  6.1314793813586419e+01  6.4757617463993455e+01  6.9802658403505944e+01  5.6273995192369632e+01  5.2835212835337479e+01  1.4989323193665624e+02  1.5150639995764172e+02  1.5498145498270168e+02  1.6007041349013255e+02  1.4642075207989589e+02  1.4295130812068837e+02  1.9527091247885710e+02  1.9360417585537107e+02  1.9015239185903204e+02  1.8503563008178730e+02  1.9872531459609067e+02  2.0217716721554521e+02  2.4084042996938024e+02  2.3917142654507020e+02  2.3569902347930642e+02  2.3056025463131809e+02  2.4431584239670127e+02  2.4778736370700318e+02  2.8664236373956970e+02  2.8828861947956045e+02  2.9180781869312693e+02  2.9697689378486319e+02  2.8312908222838934e+02  2.7961521703597629e+02  4.0980554010018847e+02  4.1146795418462381e+02  4.1502357061761609e+02  4.2024413119818871e+02  4.0625464570410617e+02  4.0270168656876416e+02  2.8805026632408288e+02  2.8383408251518176e+02  2.7547568139512697e+02  2.7968112602773709e+02  2.7136220018631252e+02  4.1122978485005285e+02  4.0696598147600196e+02  3.9851074494780022e+02  4.0276407871747091e+02  3.9433718770406551e+02  2.3936142240092636e+02  2.4357340328027587e+02  2.5188425101796071e+02  2.4766748841921353e+02  2.5593967306525244e+02  4.5778120620038271e+02  4.5349923163770910e+02  4.4503703553953386e+02  4.4928831818064384e+02  4.4088398396210732e+02  1.9378994425415451e+02  1.9798255380988834e+02  2.0625150711446926e+02  2.0206356042043828e+02  2.1030715329739837e+02  1.5126839124582312e+02  1.4711090921546838e+02  1.3886576028632584e+02  1.4301296602875570e+02  1.3480714613722856e+02  6.1081345672819104e+01  5.6958623534417953e+01  4.8779868256702564e+01  5.2901521329515461e+01  4.4765509373830248e+01  1.0323073124044394e+02  1.0738897119209433e+02  1.1558948000661627e+02  1.1142730967845139e+02  1.1958906934355190e+02  7.0628238767246387e+02  7.1067107429972384e+02  7.1933107653459183e+02  7.1494678505060654e+02  7.2358135201930907e+02  7.5399912639802233e+02  7.5840927732421846e+02  7.6711339630953853e+02  7.6269846141552546e+02  7.7136465019746674e+02  6.6177295377842438e+02  6.5741258959105880e+02  6.4879922823080290e+02  6.5312816113222937e+02  6.4458044738966964e+02  3.6220687174098396e+02  3.6633507980366369e+02  3.7469641196827723e+02  3.7046245209064409e+02  3.7054992867202407e+02  3.7891682147921898e+02  8.0481650016173546e+02  8.0053517601202964e+02  7.9186578347964382e+02  7.9625228467412921e+02  7.9613583334359737e+02  7.8750512465293036e+02  5.8270542558014006e+02  5.7850494335596954e+02  5.7003604399334222e+02  5.7430193283888718e+02  5.7420059345582320e+02  5.6580286731436217e+02  5.3302353959413290e+02  5.3721867391855915e+02  5.4570854053364440e+02  5.4141332637944924e+02  5.4148704391784008e+02  5.4997143234911300e+02  7.7946874588304308e+02  7.8786246086338429e+02  7.8345866923986387e+02  5.5787055860415217e+02  5.6608755058030420e+02  5.6181408161361151e+02  5.4963455657423629e+02  5.5394492907425058e+02  3.8295095802299085e+02  3.7670282565749255e+02  3.8096126748064080e+02  3.9039705767842014e+02  3.9655007886275627e+02  3.9234601524547350e+02  5.2457687862725220e+02  5.3299029219733268e+02  5.3806771899017065e+02  5.2964873431824265e+02  5.3472204412695521e+02  8.1350605599213873e+02  8.0487360936328935e+02  7.9967826484777981e+02  8.0830534173834133e+02  8.0310739687405191e+02  5.9118689145516623e+02  5.8273568720034541e+02  5.7763463676204913e+02  5.8607953868312939e+02  5.8097364186468576e+02  3.5388149269485615e+02  3.6216673482218602e+02  3.6716285593089179e+02  3.5887262558204236e+02  3.6386430625667174e+02  2.6368235750772806e+02  2.7165044016134590e+02  2.6749355220828892e+02  2.5572833144325250e+02  2.5983572453132399e+02  1.2723312579089372e+02  1.3509442356046790e+02  1.3099097189336953e+02  3.5994591189002513e+01  4.4417494792549491e+01  4.0357341350038020e+01  1.1938480710169820e+02  1.2343539443502428e+02  7.7113850799539182e+02  7.7544097606714513e+02  6.3807953091629656e+02  6.4556336137854112e+02  6.4131185370531455e+02  3.7413743466719046e+02  3.7230158416112869e+02  3.6899843221043750e+02  7.9030101030942126e+02  7.9327621573729539e+02  7.9670320281786087e+02  5.6847101701378858e+02  5.7138691290086263e+02  5.7471977633273355e+02  5.4725047895065529e+02  5.4433366979749042e+02  5.4098349868495870e+02  4.3676906599388002e+02  4.4299060465406393e+02  4.3880977158035364e+02  6.7153336091227106e+02  6.6228098024707651e+02  6.7124619146141811e+02  7.4419716616050789e+02  7.5350462041142316e+02  7.4448875541802715e+02  6.9652466403668302e+02  7.0578997216203356e+02  6.9681854921667866e+02  9.3995945835759315e+01  1.0276813647320446e+02  9.4275382283838297e+01  7.0311448355613422e+01  6.1570780293218696e+01  7.0058408945319840e+01  4.6750069037138314e+02  4.5834593617256627e+02  4.6715855045891618e+02  1.6058154586023460e+02  1.5176390233821559e+02  1.6032733105792184e+02  1.8447385450361483e+02  1.9332185125342309e+02  1.8475565412168976e+02  2.3000196157131481e+02  2.3889023616146198e+02  2.3028136083460771e+02  2.9762392417310491e+02  2.8861474955430128e+02  2.9730370359805562e+02  4.2077611511685910e+02  4.1173496575499615e+02  4.2051167388332402e+02  3.9767325443499254e+02  4.0018699667653226e+02  4.0373882800079650e+02  2.7402334828840890e+02  2.7681904738950732e+02  2.8033171737764980e+02  2.5328569499459110e+02  2.5053766239659402e+02  2.4706158290772399e+02  4.4398183442834858e+02  4.4659858646775626e+02  4.5014198496583231e+02  2.0748285633889321e+02  2.0483062405521369e+02  2.0137535290004993e+02  1.3754984286701190e+02  1.4025038828279602e+02  1.4372007993128446e+02  4.9444189840897863e+01  5.1139765548565464e+01  5.4578416003516722e+01  1.1697833557204541e+02  1.1426473777847168e+02  1.1083756496181454e+02  6.4770129272146528e+02  6.5037507259101972e+02  6.5398446078529309e+02  7.6857775202187031e+02  7.6570077596230419e+02  7.6205926915378268e+02  7.2061430600982703e+02  7.1783865606082679e+02  7.1421862086623071e+02  6.2972109597904705e+02  6.3340513080285245e+02  8.5981549020627631e+02  8.5155462495316124e+02  8.5577799333877965e+02  8.5977214291774476e+02  8.5245929462429945e+02  8.5573449198572689e+02  8.6773818942058790e+02  8.6377446584244683e+02  8.6778005512073241e+02  8.6383485854604987e+02  2.1073452676998347e+01  3.0777994133679183e+01  2.3318313049955055e+01  2.5560617176335935e+01  2.8529009135417638e+01  9.2009085088191785e+02  9.2013843621153433e+02  9.2632665717023917e+02  9.2018368863639398e+02  9.2628226160295117e+02  9.3247632177902108e+02  9.2009398707963817e+02  9.2014162504657963e+02  9.2632877203311750e+02  9.2628446343293524e+02  9.3247632177902108e+02  8.9500774774857518e+02  8.8535416483257984e+02  8.8949575945800859e+02  8.9503391148788864e+02  8.8539085275210982e+02  8.8954430735770256e+02  1.1529195781489150e+01  1.1571217043027810e+01  5.8051043920265517e+00  1.1612253831374250e+01  5.7641481650576258e+00  0.0000000000000000e+00  3.3795421362390613e+02  3.3225225124570193e+02  3.3910246773505122e+02  3.3110539435740134e+02  3.3681406911573259e+02  5.0839521645898418e+02  5.0260458234812705e+02  5.0955126384170870e+02  5.0144941588177414e+02  5.0724635308571453e+02  6.0747551119449690e+02  6.1333762635966377e+02  6.0632785151151052e+02  6.1448185645730314e+02  6.0861396010729618e+02  8.3132890972705138e+02  8.3731172975819982e+02  8.3502843969032006e+02  8.2905826845804438e+02  8.2677601710894510e+02  1.1390483130038819e+01  1.1501815955253296e+01  5.8059698538806224e+00  5.6935222626841435e+00  0.0000000000000000e+00  3.1308291586821861e+02  3.1926594810494061e+02  3.1522149826391455e+02  4.8310078576712971e+02  4.8937833338188915e+02  4.8524920515574507e+02  6.3286096297197128e+02  6.2660444552655292e+02  6.3075010424649008e+02  8.5154684807463843e+02  8.5981231822730660e+02  8.5980264298711336e+02  8.6775208998995242e+02  8.5979024430698621e+02  8.6777096422664738e+02  8.5247302210553960e+02  6.2896947845720615e+02  6.3732638151583274e+02  6.3657564781843507e+02  3.2226222686305942e+02  3.2382998075601353e+02  3.3068440645197580e+02  3.2385231560725498e+02  3.3227309768321430e+02  4.9140712806912666e+02  4.9353018928653830e+02  5.0048000540528869e+02  4.9408265255898004e+02  5.0315261587198142e+02  8.4062179536557176e+02  8.4195809627433414e+02  8.3369691382777341e+02  6.2362053041020067e+02  6.2249165172492212e+02  6.3009905032513984e+02  6.1383861070879573e+02  6.1497067355144861e+02  6.2198760591078258e+02  8.7428496416588780e+02  8.7501560112019149e+02  8.6704275233984004e+02  8.7499643135871338e+02  8.8205342621832961e+02  8.8134102682249011e+02  8.8839591624834225e+02  8.4288509578535479e+02  8.5021033115268779e+02  8.8207103222525893e+02  3.3885977818321317e+02  3.3215575622327646e+02  3.3897937468018677e+02  5.0931083899017483e+02  5.0303621038327753e+02  5.0943015158869110e+02  6.0661877835353937e+02  6.1398888592278297e+02  6.0647986935011738e+02  2.6885482280837516e+02  2.5848063512030308e+02  1.3239339765963047e+02  4.2721269130221046e+01  1.2210244261438572e+02  7.7401997692031534e+02  8.3517558412883693e+02  8.2825599037009908e+02  8.2972884631672798e+02  8.3743541165526710e+02  2.6370532685555247e+02  2.5849424708483059e+02  2.6369518632044361e+02  2.6886371639508212e+02  1.2725988411790112e+02  1.2211796031074563e+02  1.2724773362488158e+02  3.7280892836553107e+01  4.3362739173384611e+01  3.6639811900527775e+01  1.3240434255337888e+02  7.7948884941879635e+02  7.7403188035762560e+02  7.7948012574915572e+02  3.0804404213059144e+02  3.1767744063243998e+02  3.1515203662884568e+02  3.1056740029498161e+02  4.7804065738183232e+02  4.8725638440528047e+02  4.8472283885715711e+02  4.8057356887742100e+02  6.2823694213557951e+02  6.3471566861770509e+02  6.4288764920666404e+02  6.4213918508100448e+02  9.1007812771958095e+02  8.9946636837498897e+02  9.0700313733701375e+02  9.0392915236424267e+02  9.0254305325487564e+02  9.1007757022292333e+02  8.9947493530106556e+02  9.0700400177745234e+02  9.0255203175753093e+02  8.9171175447875703e+02  8.9169749595187250e+02  2.1560422816138006e+02  2.0888722584370615e+02  2.1298012548091242e+02  7.2912177344867064e+02  7.2208815387969355e+02  7.2637564167488381e+02  7.8488668156410688e+02  5.5255420072713150e+02  5.6316988661069774e+02  7.8489437864925719e+02  5.5784041357226602e+02  5.5254526278782521e+02  5.5785386195238596e+02  5.6315596373816959e+02  3.8662632679889225e+02  3.9403539184893543e+02  3.9214999191261455e+02  3.8851103389126524e+02  4.5632684588458602e+02  4.4857464311192956e+02  4.5706014170448054e+02  2.4076465838491970e+02  2.4006406348550954e+02  2.4836003531422372e+02  2.8659353006753344e+02  2.7896716266853065e+02  2.8732291106495148e+02  4.0975814736297389e+02  4.0204059488941522e+02  4.1049519270744901e+02  5.9657981192394985e+01  5.2200777624261498e+01  6.0371016910908310e+01  1.0461398374704552e+02  1.0392281622516427e+02  1.1211025930165128e+02  1.4982994165133806e+02  1.4230803284603576e+02  1.5055033951832672e+02  1.9518757016593230e+02  1.9448967916796545e+02  2.0275167819084911e+02  7.0774911864494800e+02  7.0701679800146837e+02  7.1566917761472257e+02  7.5547008651112048e+02  7.5473571712471221e+02  7.6342501706097357e+02  6.6029251375294916e+02  6.5240327992201310e+02  6.6103918651878780e+02  3.1709017592076486e+02  3.0998323404153189e+02  3.1191446219606394e+02  4.8677847192160903e+02  4.8009591220626470e+02  4.8214587131880796e+02  4.3140004197628718e+02  4.2638414574382182e+02  4.3199508010975006e+02  4.2578943758981103e+02  4.3080588426234095e+02  6.8346803053033295e+02  6.7778540503382010e+02  6.8403103598030577e+02  6.7721617615005925e+02  6.8291221531105498e+02  6.8459632042515989e+02  6.9027647829254136e+02  6.9084443779428250e+02  6.8516348719071129e+02  4.4037342963742230e+02  4.3437972274392649e+02  4.3798831888010375e+02  3.1865643466013989e+02  4.8945188581259538e+02  3.1419208776550501e+01  3.3478715204695214e+02  5.0518791828216001e+02  8.3344794965381300e+02  6.1067291790057163e+02  3.1458938407666176e+02  4.8482924223300739e+02  3.7854091863365102e+02  3.8038108065693962e+02  3.8478890991820754e+02  5.2320808241983252e+02  5.3230098331379884e+02  5.2389301667375128e+02  8.1490125202523564e+02  8.0557191802436978e+02  8.1420711589668406e+02  5.9240026822883476e+02  5.8334158349374320e+02  5.9179635625180128e+02  3.5271827418740043e+02  3.6158120317164514e+02  3.5330042361006974e+02  1.7252618125689980e+02  1.7850782024531762e+02  1.7254379410773080e+02  1.7849039227020938e+02  1.7250830696760343e+02  1.6656146014462706e+02  1.6654343257671940e+02  8.2151608559465103e+01  8.8081338591583531e+01  8.2168358098734558e+01  8.8064489340005679e+01  8.2134768754293034e+01  7.6238383919479659e+01  7.6221707679624217e+01  8.9616312430140749e+02  3.6350106738914121e+02  3.6286122629196296e+02  3.7118670566385231e+02  8.0345432759917060e+02  7.9546929789656315e+02  8.0413487654481457e+02  5.8139503591532423e+02  5.7356156928801568e+02  5.8205390741949850e+02  5.3433314776916598e+02  5.3368461209303462e+02  5.4213478866333480e+02  4.4144740707003660e+02  4.3672025836602199e+02  4.3612613392865489e+02  6.9342300899847839e+02  6.8872645314354452e+02  6.8816508872212614e+02  6.7464543889798153e+02  6.7933779719101244e+02  6.7990286287057563e+02  2.1913398250583111e+02  2.1154233281781845e+02  2.1330725887719711e+02  2.1737112199131022e+02  7.3281458308231004e+02  7.2486678080338675e+02  7.2671313579016760e+02  7.3097009052650947e+02  0.0000000000000000e+00  0.0000000000000000e+00  5.8058311433233971e+00  9.3247632177902108e+02  9.3247632177902108e+02  9.2632889923535856e+02  9.3247632177902108e+02  0.0000000000000000e+00  3.3585042821554873e+02  5.0624516133582858e+02  8.3264640086562110e+02  6.0974726635380875e+02  9.1508284626429645e+02  9.1512840955721629e+02  9.1508589153061257e+02  9.1513001877674094e+02  4.5430847443278054e+01  3.8457910218419784e+01  4.5128483983117562e+01  4.4849405130366705e+01  3.8770440384439084e+01  3.2099799349028650e+01  3.4578767789076954e+02  3.4591036030143817e+02  5.1625888109770108e+02  5.1637952919465306e+02  5.9950883675057742e+02  5.9936299937306455e+02  8.2231114752147971e+02  8.2083871628785471e+02  3.0476509436196977e+02  3.0283307743906187e+02  4.7481994466991415e+02  4.7277261837576799e+02  2.9776581513331781e+01  3.0961287551343851e+01  3.7301603795073781e+01  1.6298783457528867e+01  1.6344160762009338e+01  2.2280396471931101e+02  2.2456519350038977e+02  7.3666011340860859e+02  7.3850304587017865e+02  2.0340193251059677e+01  1.5863099568324975e+01  1.5975435523132564e+01  2.2058395672811773e+02  2.2778757321326947e+02  2.2560307096066100e+02  7.3433704143978923e+02  7.4187955578069079e+02  7.3959091806430547e+02  3.4943730495733115e+02  3.4426831360954390e+02  3.4312464735428387e+02  5.2025696238027501e+02  5.1490258971069579e+02  5.1375027925640427e+02  5.9550780786376265e+02  6.0091651952328493e+02  6.0206070219224614e+02  8.1843723015898433e+02  8.2260689461084473e+02  8.2487747270437330e+02  3.0689922153931411e+02  2.9975663335654428e+02  3.0185628538442421e+02  4.7701633180515552e+02  4.6969654994008937e+02  4.7186937587851168e+02  2.9155874349933828e+01  2.1703373651044881e+01  2.2328207459899549e+01  7.3959408487214830e+02  7.3131057694017989e+02  7.2792062045511886e+02  7.2303079345909043e+02  7.3620481788311542e+02  1.2728405082709894e+02  1.3136690987493066e+02  1.3547383923813680e+02  1.2317856054012158e+02  1.1909958498703756e+02  2.7118979608291505e+02  2.6330721705043419e+02  2.5956652140860001e+02  2.5543171307899857e+02  2.6744784777835537e+02  1.6506508303991794e+02  1.7252227436141834e+02  1.7626353455071234e+02  1.7998687883538841e+02  1.6880430702559823e+02  7.4752699334339624e+01  8.2146902686771000e+01  8.5856027890576243e+01  8.9547740826208880e+01  7.8460441308815092e+01  2.2560923010209081e+02  2.1446157286786175e+02  2.2237227080575192e+02  2.1769921361646294e+02  2.0979257447846331e+02  3.0004155479018431e+02  3.0404529509244912e+02  3.0655861960559440e+02  4.7039501559410371e+02  4.7421935238434412e+02  4.7674515818645227e+02  6.4622905818587014e+02  6.4140023450819251e+02  6.3954676085724702e+02  3.7740206398002175e+02  3.8201523202688566e+02  3.8389585944415279e+02  4.2462635369632108e+02  4.2831284414663241e+02  4.3069633806551531e+02  3.8900252142684531e+02  3.9083629648436352e+02  3.9504800396321934e+02  5.4967321385076082e+02  5.6203918273694001e+02  5.5375578977599878e+02  5.5795459882740431e+02  5.6623945566725831e+02  7.8786155757527479e+02  7.7933762576412641e+02  7.7515332327906538e+02  7.7082186920104539e+02  7.8367591311452338e+02  2.8828974908162596e+01  3.4693474499105164e+01  2.9283534587893502e+02  2.9496703090095031e+02  4.1600244948728533e+02  4.2300410032627281e+02  4.1822966026134350e+02  4.2521560733965771e+02  1.5592430624799812e+02  1.6274975841234283e+02  1.5809059826663454e+02  1.6489328401769799e+02  6.6665343404188627e+02  6.7383454318537167e+02  6.6893364238249637e+02  6.7609308597375025e+02  1.8913174802338639e+02  1.8226432190598717e+02  1.8692092666336549e+02  1.8008001822604197e+02  7.4909881690578970e+02  7.4677857720148972e+02  7.0140354080839302e+02  6.9421463117127792e+02  6.9909241026047664e+02  6.9193841167475239e+02  9.8613510359312556e+01  9.1805643380258658e+01  9.6421371118952095e+01  8.9641206347033688e+01  6.5695641760393912e+01  7.2462058692990539e+01  6.7844473148947927e+01  7.4587339073278741e+01  2.3468231149343893e+02  2.3246578972596842e+02  4.6264073489020876e+02  4.6481512107262716e+02  5.2586974491059664e+02  5.2097773562994223e+02  5.1877435602550247e+02  5.2811462264094223e+02  5.8988744933748944e+02  5.9476843215064878e+02  5.9710741700876815e+02  5.8755061241517274e+02  8.1213368197367879e+02  8.1719048753291838e+02  8.1943693709181184e+02  8.0985682000387590e