<?xml version="1.0"?>
<VTKFile type="UnstructuredGrid"  version="0.1"  >
<UnstructuredGrid>
<Piece  NumberOfPoints="2690" NumberOfCells="4864">
<Points>
<DataArray  type="Float64"  NumberOfComponents="3"  format="ascii">-5.000701890821292 22.00014141938954 0  -5.603701982388847 21.26264321992222 0  -5.000687362497723 21.50015304695923 0  -5.000671545187718 21.00014254164832 0  -5.603715480268701 21.76264571791841 0  -6.206730334626779 21.52512691873972 0  -9 21.99999999996945 0  -8.396977427372418 21.26252969565823 0  -9 21.49999999997139 0  -9 20.99999999997333 0  -8.396979831107066 21.7625295200435 0  -7.79395737992434 21.52505867309705 0  -9 32.9999999999446 0  -8.397030418114145 32.26252920538225 0  -9 32.49999999994358 0  -9 31.99999999994255 0  -8.397032825207175 32.76252924340562 0  -7.794063363827424 32.52505815523151 0  -5.001053738835299 33.00015313321314 0  -5.520597727884367 32.29650961320917 0  -5.001038577920161 32.50017346157237 0  -5.001022472663978 32.00014826678453 0  -5.520611564447917 32.79651354768362 0  -6.040170562131972 32.59285186485668 0  -5.001726548686607 54.00014683436891 0  -5.604609799901988 54.73763983030612 0  -5.604596533964265 54.23764597712769 0  -6.207465255966872 54.47512380615561 0  -5.001741499798819 54.50015686553972 0  -5.001756311921427 55.00014782546402 0  -9 54.99999999998974 0  -8.470163886837261 54.29613899338521 0  -9 54.49999999998872 0  -9 53.99999999998769 0  -8.470165940665801 54.79613839623175 0  -7.940330236310364 54.59227697893061 0  -9 39.99999999995897 0  -8.397071258715997 40.7375287760205 0  -8.397068852580693 40.23752879947965 0  -7.794139992950193 40.47505718552227 0  -9 40.49999999996 0  -9 40.99999999996102 0  -5.001309560044191 41.00013571641002 0  -5.577536150708687 40.26796473868133 0  -5.001294553183754 40.50015758720409 0  -5.001279281594297 40.00015322983313 0  -5.577549710612582 40.76796238632209 0  -6.153791434906152 40.53576406465123 0  -9 55.99999999999179 0  -8.421968497116886 56.74335192031911 0  -8.421966459703384 56.24335154956231 0  -7.843935057166624 56.48670307747902 0  -9 56.49999999999282 0  -9 56.99999999999384 0  -5.001789986692669 56.0001403621141 0  -5.57984246657495 56.74346578572325 0  -5.579829216004446 56.243465193262 0  -6.157866833585609 56.48677270043581 0  -5.001805698676597 56.50016161214513 0  -5.001820462812005 57.00014821239837 0  -7.438036671582166 43.00008042564722 0  -6.590449960324875 43.10829599528849 0  -7.199618423460956 43.33743115973834 0  -6.961201465228658 43.6747820312522 0  -6.828866985287545 42.7709443857638 0  -6.219695018305747 42.54180831448196 0  -6.563454181856241 49.00015200433552 0  -7.411000908277139 48.89192777097649 0  -6.801859895890804 48.662800174548 0  -7.040266904167255 48.32544789826849 0  -7.172593971657295 49.22927928522861 0  -7.781731538507797 49.45840767877807 0  -6.563395566859681 46.00014269345861 0  -7.410962720251328 45.89192181341372 0  -6.801807042549973 45.66278924526623 0  -7.040219814950672 45.32543653456667 0  -7.172550044913043 46.22927443609515 0  -7.781702270046341 46.45840561931297 0  -6.562636302259222 7.000148241087525 0  -7.410467591212424 6.891926117355889 0  -6.801122117116917 6.662796328435643 0  -7.03960922551976 6.325444446225077 0  -7.171980585253516 7.229277990494269 0  -7.781322621338811 7.458407612156821 0  -7.437874382563586 30.000079453564 0  -6.59019958851288 30.10829390368393 0  -7.199431362702181 30.33742798689778 0  -6.960989636004469 30.67477603980193 0  -6.828641396032427 29.77094490175439 0  -6.219406129588178 29.54181110593212 0  -6.56257885068753 4.000141082344951 0  -7.410433106886885 4.108262459876728 0  -6.801081988377559 4.337465650383619 0  -7.03958385627589 4.674789720843332 0  -7.171931320894946 3.77093807920884 0  -7.781285727331857 3.541736045162338 0  -6.562694589298131 10.00014962165032 0  -7.410508308314071 10.1082681664628 0  -6.801186501714633 10.33747227382601 0  -7.039677129763523 10.67479491432598 0  -7.17201760114918 9.770945660758985 0  -7.781342841920853 9.541741540110428 0  -6.562752980107599 13.00015087175295 0  -7.410543643145338 12.8919282388413 0  -6.801227332428676 12.66279900372374 0  -7.039702971138016 12.32544718167882 0  -7.172068087431084 13.22928029930544 0  -7.781380958832401 13.45840927111814 0  -6.562811490279746 16.00015323799522 0  -7.410581784530134 15.89192890916589 0  -6.801280097893944 15.6628015282731 0  -7.039749998429306 15.32544943901892 0  -7.172111959286084 16.22928043904097 0  -7.78141020260698 16.45840852323865 0  -6.562869910880089 19.0001368582073 0  -7.410622649766633 19.1082582480107 0  -6.801344691606987 19.33745704308404 0  -7.039818174645442 19.67477810692757 0  -7.172149086396589 18.77093675665425 0  -7.781430492955221 18.54173623202399 0  -6.563025614847519 27.00013154506169 0  -7.410724180826275 27.10825489599995 0  -6.801485151443247 27.33745467066643 0  -7.039943389864135 27.6747779948377 0  -7.172265851661268 26.77093074822064 0  -7.78150833498439 26.54173117894543 0  -8.269241015256846 19.09394110326267 0  -8.025336292759505 18.81783843741 0  -8.39071392763331 18.27086852134962 0  -8.634618909776721 18.54697118560572 0  -9 17.99999999998495 0  -8.269287695997789 27.09393941855811 0  -8.025398554253934 26.81783531667992 0  -8.390752848792395 26.27086545648427 0  -8.63464225029281 26.54696968195962 0  -9 25.99999999995395 0  -8.269222391926538 15.90614466371435 0  -8.025315758630054 16.1822766763685 0  -8.390706419813558 16.72920392865063 0  -8.634612794143997 16.45307208996349 0  -9 16.99999999998883 0  -5.731656179646209 30.09407440007934 0  -5.975530581543854 29.81794254666628 0  -5.610167364509595 29.27100964524642 0  -5.36629248766075 29.54714822448049 0  -5.000925221119594 29.00014113948685 0  -8.269204857780901 12.90614461878708 0  -8.025292369926641 13.18227691444896 0  -8.39069179918204 13.72920469913399 0  -8.634604026442311 13.45307237928127 0  -9 13.99999999999401 0  -8.269188445339786 10.09394574676985 0  -8.025266180972061 9.817843650677775 0  -8.390670105833395 9.270870744870878 0  -8.634592628442652 9.546972842354487 0  -9 8.99999999999857 0  -8.269153978968113 4.093943046225301 0  -8.025220348278653 3.817839669239339 0  -8.390641788886779 3.270867809272695 0  -8.634575555620144 3.546971217646985 0  -9 2.999999999998668 0  -8.269169900952967 6.906143556830997 0  -8.025245725701561 7.182275556196951 0  -8.390662625426712 7.729203849892571 0  -8.634586536561754 7.453071865574385 0  -9 7.999999999999485 0  -8.26939754275395 45.906141574559 0  -8.025549367310706 46.18227343089767 0  -8.390852456966522 46.72920306837765 0  -8.634700370272222 46.45307122624607 0  -9 46.99999999997333 0  -8.269415092853832 48.90614405753409 0  -8.025572777123521 49.18227594735151 0  -8.390867084537026 49.72920349961759 0  -8.634709143661352 49.45307181999693 0  -9 49.99999999997949 0  -5.731995813968496 43.09407617194312 0  -5.975844836775075 42.81794214135444 0  -5.610519534628792 42.27100479812297 0  -5.366670057578726 42.54714629596118 0  -5.001340633393238 42.00013547714723 0  -5.72675246213002 23.91649882087631 0  -5.9754747948311 24.18421921256017 0  -5.612496159830783 24.72607445117734 0  -6.224196007775129 24.45194005027283 0  -5.363774328442656 24.45836090744568 0  -5.000799706710765 25.00014091029706 0  -8.274174932280557 52.08371620992003 0  -8.025513013230531 51.81599502047528 0  -8.388423683936287 51.27413751043952 0  -7.776850036542128 51.54827423729568 0  -8.63708590411979 51.54185869086857 0  -9 50.99999999998153 0  -5.727122957222209 38.08384964097691 0  -5.975804116795589 37.81609760659097 0  -5.612835378237333 37.27427406345219 0  -6.224486399513874 37.54834614952298 0  -5.364153699278313 37.54203417543516 0  -5.001180649117675 37.00012908966445 0  -5.72704020893662 34.91649737942848 0  -5.975740699671667 35.1842167575271 0  -5.61279403706087 35.72607027053974 0  -6.22444007120673 35.45193657073987 0  -5.364093968149452 35.4583587212711 0  -5.001151495610683 36.00013470518637 0  -7.884232607718788 50.50024147989056 0  -7.830541101568708 51.02425803940656 0  -8.442117412039721 50.75012035975455 0  -6.117204726987964 36.50014021045789 0  -6.170845748973402 37.0242422764751 0  -5.559192305584621 36.75016002714304 0  -6.170822217508145 35.97603753020373 0  -5.559178788291659 36.25015869445719 0  -5.97730826302506 25.26011473393386 0  -6.100751769322797 24.85602773375388 0  -5.489054022986665 25.13015391074972 0  -8.027698457322098 25.74586621683694 0  -7.904603003786397 26.14379869323571 0  -8.51384972267174 25.87293313163581 0  -6.942893566537303 34.37600651820847 0  -6.583665248431569 34.91397230859527 0  -6.840559903985541 35.23850682801889 0  -7.199788395425895 34.70054219398085 0  -7.456681883225549 35.02507761749797 0  -7.058487749798839 52.62420026709895 0  -7.417667356895277 52.08623801080883 0  -7.160808825088066 51.76170576247664 0  -6.801629387332175 52.29966843974729 0  -6.544769695217386 51.97513704274295 0  -6.94296345042982 38.62419943999976 0  -6.583726486497321 38.08627360987165 0  -6.84060340618501 37.76171140676896 0  -7.19984018696803 38.299638455264 0  -7.456718264870896 37.97507718159197 0  -6.942712719944125 23.37600733218572 0  -6.583452799961734 23.91397415337175 0  -6.840370030311827 24.23850930886234 0  -7.199630124544761 23.7005434696931 0  -7.456546191002746 24.02507920479043 0  -7.884084567486672 17.50006677125384 0  -7.832757315786337 18.02090171654522 0  -8.442043398491098 17.75003298710739 0  -7.832747599487562 16.97923772659707 0  -8.442041168850732 17.25003360401818 0  -7.884004325482781 8.500068381424018 0  -7.832673368880664 9.020904972639325 0  -8.442003275131087 8.750034207755416 0  -7.931264726247661 2.415654998488032 0  -7.85627476406297 2.978695334836659 0  -8.465633425678359 2.707827707707161 0  -7.832663683581707 7.97923803356355 0  -8.442001053192193 8.250034142329229 0  -7.83298229019065 49.97932466472059 0  -8.442115189813746 50.25012095792128 0  -6.027582851830527 41.59323677877272 0  -6.123639262194421 42.06752312515051 0  -5.5
[...]
<PointData  Scalars="f_29"> 
<DataArray  type="Float64"  Name="f_29"  format="ascii">7.7333844071003142e+01  7.4718817072068560e+01  7.5558252371121981e+01  7.3784382898204896e+01  7.6484024637625126e+01  7.5646358372665929e+01  7.7337740110260981e+01  7.4721136567279515e+01  7.5561804353016271e+01  7.3788120562511764e+01  7.6486093373819216e+01  7.5647762697564701e+01  1.1602493782353621e+02  1.1340796038221994e+02  1.1424817087823203e+02  1.1247391873275727e+02  1.1517332154323363e+02  1.1433517059706385e+02  1.1601493684339277e+02  1.1352892641232813e+02  1.1424762842341161e+02  1.1248191798870249e+02  1.1529021738410218e+02  1.1457329016983131e+02  1.8985963878255879e+02  1.9247920725644610e+02  1.9071243450365688e+02  1.9155201497909147e+02  1.9163381283172046e+02  1.9341405306554333e+02  1.9340884069345699e+02  1.9092333522698365e+02  1.9164284502361372e+02  1.8987616471874486e+02  1.9268660584001071e+02  1.9196829336082550e+02  1.4060993162612002e+02  1.4322778597724891e+02  1.4146186281109377e+02  1.4230033077007863e+02  1.4238729067971613e+02  1.4416207346004759e+02  1.4415716577433619e+02  1.4156822812955755e+02  1.4238714318251820e+02  1.4061375605345870e+02  1.4333394515945056e+02  1.4251557126672392e+02  1.9692127168839218e+02  1.9955356183744556e+02  1.9778845266891548e+02  1.9864582538857218e+02  1.9868904243441938e+02  2.0046653166322068e+02  1.9692288667360191e+02  1.9955403519247056e+02  1.9778912812455877e+02  1.9864627639177922e+02  1.9868996389077100e+02  2.0046711762252184e+02  1.5119150181543037e+02  1.5157232421231353e+02  1.5237781175433079e+02  1.5356428680649796e+02  1.5038574748468608e+02  1.4958070736831729e+02  1.7228902313819663e+02  1.7190866686382375e+02  1.7110305036650800e+02  1.6991711287466663e+02  1.7309465513828385e+02  1.7389960345887278e+02  1.6174277722677490e+02  1.6136092281467955e+02  1.6055631141593213e+02  1.5936972042219270e+02  1.6254723661574943e+02  1.6335158830852731e+02  2.4594909644464124e+01  2.4213732531254102e+01  2.3409602816647361e+01  2.2224342383337873e+01  2.5399105633025854e+01  2.6202775153929149e+01  1.0544668545450924e+02  1.0582775052152664e+02  1.0663301322828943e+02  1.0781973599818093e+02  1.0464167844791828e+02  1.0383660559460766e+02  1.4056019716600712e+01  1.4435789809961992e+01  1.5240933807182966e+01  1.6425864262222884e+01  1.3250646181236203e+01  1.2445836863275829e+01  3.5135065584875001e+01  3.5515996721272991e+01  3.6320334182076422e+01  3.7505524712142389e+01  3.4330674269668876e+01  3.3526992452775566e+01  4.5674417656732722e+01  4.5293674380144154e+01  4.4489221249011877e+01  4.3304078101916595e+01  4.6478859251144506e+01  4.7282876322870955e+01  5.6214482921871394e+01  5.5834368740091200e+01  5.5029210632887349e+01  5.3843984079429902e+01  5.7019639419089373e+01  5.7824079445036745e+01  6.6758301875443024e+01  6.7139963078307318e+01  6.7944663626128857e+01  6.9131359839300117e+01  6.5953879119043791e+01  6.5149869343621276e+01  9.4900565122524881e+01  9.5281378889320848e+01  9.6086315283523874e+01  9.7272303170200487e+01  9.4095477824275321e+01  9.3290487415007590e+01  6.7090298811477410e+01  6.6120443735804798e+01  6.4202374096008796e+01  6.5170522309362198e+01  6.3260827659269445e+01  9.5231888139982502e+01  9.4261291964763572e+01  9.2340810881564920e+01  9.3309745369721711e+01  9.1395097116718460e+01  5.5884013190314185e+01  5.6853858275678419e+01  5.8772808578780584e+01  5.7802534838237975e+01  5.9711600857109694e+01  1.0577738450051541e+02  1.0480720871597443e+02  1.0288708622405171e+02  1.0385562267188426e+02  1.0194177074246657e+02  4.5343134189461665e+01  4.6312819190116045e+01  4.8231181078357032e+01  4.7263145683247238e+01  4.9175005550892358e+01  3.5466940180458934e+01  3.4497239060806713e+01  3.2579768437073390e+01  3.3547736739949038e+01  3.1638413934986783e+01  1.4386183984211010e+01  1.3416109224577498e+01  1.1496396225064206e+01  1.2466840012633888e+01  1.0555850722325294e+01  2.4262347686524549e+01  2.5232421148136613e+01  2.7151081018664751e+01  2.6180728699298470e+01  2.8089675106111223e+01  1.6141034714627136e+02  1.6238075401851293e+02  1.6430050106181417e+02  1.6333178144187210e+02  1.6524496335263618e+02  1.7195831795088284e+02  1.7292877369465901e+02  1.7484895433745729e+02  1.7387806124112856e+02  1.7578837991616047e+02  1.5152276377385189e+02  1.5055203430475666e+02  1.4863217301416262e+02  1.4960109978428810e+02  1.4768889864364357e+02  8.4058865800158813e+01  8.4999926502748025e+01  8.6902232999388588e+01  8.5941116238360991e+01  8.5962828377946352e+01  8.7859126570921163e+01  1.8313610589087077e+02  1.8219478697565347e+02  1.8029350687529038e+02  1.8125296711633294e+02  1.8123296950313107e+02  1.7934006253091786e+02  1.3388774004185007e+02  1.3294643348064037e+02  1.3104538785531022e+02  1.3200474908857572e+02  1.3198476367439963e+02  1.3009203661129925e+02  1.2274506769704725e+02  1.2368677704840839e+02  1.2558914581647656e+02  1.2462858613802719e+02  1.2464719918778162e+02  1.2653995133338465e+02  1.7756499667878640e+02  1.7940985419796613e+02  1.7844559108541958e+02  1.2831650689101798e+02  1.3016155066650342e+02  1.2919723998648658e+02  1.2647154148875244e+02  1.2743377707676146e+02  8.8782817218399217e+01  8.7361523102776701e+01  8.8326082656681734e+01  9.0491922723677717e+01  9.1891633742446331e+01  9.0938494221328057e+01  1.2084730242801812e+02  1.2273830332058338e+02  1.2387971609843544e+02  1.2198877934422494e+02  1.2313023496550396e+02  1.8503583083001095e+02  1.8314369999094868e+02  1.8200196098042105e+02  1.8389377081182886e+02  1.8275173903949786e+02  1.3578621692335759e+02  1.3389498465863315e+02  1.3275358707769436e+02  1.3464471063711733e+02  1.3350320201591234e+02  8.2159489812941786e+01  8.4050559892562774e+01  8.5191267626274225e+01  8.3300376557263874e+01  8.4441015619829585e+01  6.1486525165073672e+01  6.3319040078192550e+01  6.2366760080346673e+01  5.9654280858661821e+01  6.0604599763824147e+01  2.9864637972770527e+01  3.1696723818068957e+01  3.0744538040715909e+01  8.4859875390267376e+00  1.0467025216348537e+01  9.5157370456798525e+00  2.8032723759096815e+01  2.8982657394812072e+01  1.7573126987344733e+02  1.7668224379362022e+02  1.4624283675097240e+02  1.4791239172523757e+02  1.4696061294495166e+02  8.6781885232815313e+01  8.6361624058470824e+01  8.5611293324776540e+01  1.7994130513652260e+02  1.8059701851461492e+02  1.8134648028855889e+02  1.3070039902938547e+02  1.3135240249483095e+02  1.3210181297449662e+02  1.2594114125233406e+02  1.2528500477973024e+02  1.2453565249912590e+02  1.0101274858829804e+02  1.0242510043923787e+02  1.0147220100680481e+02  1.5368908725049320e+02  1.5163498180947499e+02  1.5362680454909793e+02  1.6979315865674920e+02  1.7184626514360701e+02  1.6985491670282138e+02  1.5924463612737298e+02  1.6129817900882210e+02  1.5930699258721711e+02  2.2099288053839278e+01  2.4150856839027224e+01  2.2161763255148120e+01  1.6549943490423765e+01  1.4498146574802385e+01  1.6487917011046974e+01  1.0797266381772751e+02  1.0590446525151195e+02  1.0789660457004949e+02  3.7630240803464055e+01  3.5578761372879910e+01  3.7567938058901952e+01  4.3179529453493551e+01  4.5231099345301388e+01  4.3241740573295324e+01  5.3720189561281217e+01  5.5772020835926455e+01  5.3781873964118688e+01  6.9284403083394110e+01  6.7216987711406873e+01  6.9208334127790110e+01  9.7397314459574886e+01  9.5343993974640540e+01  9.7334884125193000e+01  9.2142865809282185e+01  9.2716548219831623e+01  9.3521967689499760e+01  6.3860533188204336e+01  6.4505087628477526e+01  6.5309471934328784e+01  5.9086676359947838e+01  5.8455511614004038e+01  5.7650524211180958e+01  1.0265418283295425e+02  1.0324530876531080e+02  1.0405050716813483e+02  4.8506505772841273e+01  4.7894762886467589e+01  4.7090431733496729e+01  3.2263870018801462e+01  3.2895246539621866e+01  3.3699551799402677e+01  1.1644723048471116e+01  1.2045107553267583e+01  1.2850523712481104e+01  2.7465879425304003e+01  2.6834470597202948e+01  2.6030301671287081e+01  1.4839204129034087e+02  1.4898621417407105e+02  1.4979209479440604e+02  1.7516302535239825e+02  1.7453145562728952e+02  1.7372594861623091e+02  1.6457637679632606e+02  1.6396404042207868e+02  1.6315955379054529e+02  1.4437900866489122e+02  1.4519967291580363e+02  1.9516745549224302e+02  1.9336000672878814e+02  1.9428486734319785e+02  1.9516657077532588e+02  1.9356745350652002e+02  1.9428673199218505e+02  1.9690627541905002e+02  1.9604330423542456e+02  1.9690688257610597e+02  1.9604386015948222e+02  4.9708376784658785e+00  7.2557387689297013e+00  5.4984579362658987e+00  6.0258483417159825e+00  6.7275941636608065e+00  2.0832197717131970e+02  2.0833133296432527e+02  2.0967654039604085e+02  2.0834047593475185e+02  2.0966745953972520e+02  2.1101292989919494e+02  2.0832189268428124e+02  2.0833136411193243e+02  2.0967666811047823e+02  2.0966746537826708e+02  2.1101292989919494e+02  2.0285897707780526e+02  2.0075249569798970e+02  2.0165921560438892e+02  2.0285920507270995e+02  2.0075290078090171e+02  2.0165963025550764e+02  2.7215928154946742e+00  2.7301074246570205e+00  1.3697279908774869e+00  2.7391632982439167e+00  1.3608210861726888e+00  0.0000000000000000e+00  7.8520040860490866e+01  7.7213633922325826e+01  7.8779192232201865e+01  7.6955119002839780e+01  7.8262896998723079e+01  1.1720598827452746e+02  1.1589951346043577e+02  1.1746325683756287e+02  1.1564259787139478e+02  1.1695047904871647e+02  1.3942682885711733e+02  1.4073370636179698e+02  1.3916757719671057e+02  1.4099245375047960e+02  1.3968417852031394e+02  1.8893478633898889e+02  1.9024345771692344e+02  1.8974718730687815e+02  1.8844010789988965e+02  1.8794296523085197e+02  2.6881989305664917e+00  2.7134214016691578e+00  1.3698894962395787e+00  1.3440745497781210e+00  0.0000000000000000e+00  7.2814961605925262e+01  7.4230794176666237e+01  7.3302445222338449e+01  1.1150391488052423e+02  1.1291967850581139e+02  1.1199168406472636e+02  1.4509147571857585e+02  1.4369580648041494e+02  1.4462395497659972e+02  1.9336055644097905e+02  1.9516747469277354e+02  1.9516751741737258e+02  1.9690662776290611e+02  1.9516732637602860e+02  1.9690687261130992e+02  1.9356757519487127e+02  1.4421450212294417e+02  1.4607743312402536e+02  1.4591302483342417e+02  7.4923335050553320e+01  7.5285146442413634e+01  7.6851833431445542e+01  7.5284463257369353e+01  7.7213107584294576e+01  1.1337162684025266e+02  1.1385291208042943e+02  1.1541791509006853e+02  1.1397216006623600e+02  1.1601816056942238e+02  1.9097377617620478e+02  1.9126331291776620e+02  1.8945805989951069e+02  1.4302457658995607e+02  1.4277000847215444e+02  1.4446898350689685e+02  1.4084080013672434e+02  1.4109551218970665e+02  1.4266289338442328e+02  1.9833149553220318e+02  1.9848903749357441e+02  1.9674946886200510e+02  1.9848878892534015e+02  2.0002978759417647e+02  1.9987222674637243e+02  2.0141249658900915e+02  1.9147100338810543e+02  1.9307050796592904e+02  2.0003000364896286e+02  7.8718704457679820e+01  7.7182694638669304e+01  7.8748013346088953e+01  1.1740437710520247e+02  1.1598892602971328e+02  1.1743318345567742e+02  1.3922839938828758e+02  1.4087133783340207e+02  1.3919892234769384e+02  6.2674104160865603e+01  6.0286085038670812e+01  3.1064872210254691e+01  1.0066128263230754e+01  2.8664683761907547e+01  1.7636348328927380e+02  1.8978453437206784e+02  1.8826928421632553e+02  1.8859472358440777e+02  1.9028118076794999e+02  6.1486204032062872e+01  6.0286339765079440e+01  6.1486448946415749e+01  6.2673406049219338e+01  2.9864853012208815e+01  2.8665284678405147e+01  2.9864781294539192e+01  8.7840275848393254e+00  1.0214501399838973e+01  8.6352453660819926e+00  3.1064433618862044e+01  1.7756395451938556e+02  1.7636338234250928e+02  1.7756455771979540e+02  7.1667184599939787e+01  7.3869793117022411e+01  7.3294939807481697e+01  7.2241715260771670e+01  1.1035573543798547e+02  1.1243846327451399e+02  1.1186348081963371e+02  1.1093037352678154e+02  1.4405730755966292e+02  1.4550157118061799e+02  1.4731732790129752e+02  1.4715278928300663e+02  2.0614173968194396e+02  2.0382940785424373e+02  2.0547136827958931e+02  2.0480117441658905e+02  2.0450078792587328e+02  2.0614180388427391e+02  2.0382950617994993e+02  2.0547141341907104e+02  2.0450087493382023e+02  2.0213491379133893e+02  2.0213473441326903e+02  5.0392792620037497e+01  4.8837376699027978e+01  4.9789196634495568e+01  1.6646362110549572e+02  1.6490717001250516e+02  1.6585957016088756e+02  1.7875372601922592e+02  1.2712822196433405e+02  1.2950907496236334e+02  1.7875265898412246e+02  1.2831661509766775e+02  1.2712881337136039e+02  1.2831658556148940e+02  1.2950855793660529e+02  8.9627139711986331e+01  9.1317446833473895e+01  9.0885102099332684e+01  9.0059409113847579e+01  1.0544710812586878e+02  1.0369330787786942e+02  1.0561215446389275e+02  5.6213140265607301e+01  5.6048548516925202e+01  5.7964706733619735e+01  6.6760619100894871e+01  6.5008772718766778e+01  6.6925432709959054e+01  9.4901949599349507e+01  9.3147370355403197e+01  9.5066935739251889e+01  1.4056878019462419e+01  1.2304362173735042e+01  1.4221589360335919e+01  2.4591118478459247e+01  2.4426606036543554e+01  2.6342858537646144e+01  3.5137685625443972e+01  3.3386030673104322e+01  3.5302371957153710e+01  4.5672687463785344e+01  4.5507917491611735e+01  4.7425190730074242e+01  1.6174027758051153e+02  1.6157532252238570e+02  1.6349394876750944e+02  1.7228765157874020e+02  1.7212295350319496e+02  1.7404034278445602e+02  1.5119286202285144e+02  1.4943909431795959e+02  1.5135784220481293e+02  7.3742620996296992e+01  7.2114592293052254e+01  7.2560768602406839e+01  1.1232435919050229e+02  1.1081649217398804e+02  1.1127651390024667e+02  9.9806514655670611e+01  9.8667574096017219e+01  9.9937855489203045e+01  9.8536140701606087e+01  9.9675341200363903e+01  1.5633771241688183e+02  1.5507826789872942e+02  1.5646708253590523e+02  1.5494831677445760e+02  1.5620810460913609e+02  1.5659652338443033e+02  1.5785577096561721e+02  1.5798569852093573e+02  1.5672627955696524e+02  1.0183350728125045e+02  1.0047508191733351e+02  1.0129603390128436e+02  7.4104164741496376e+01  1.1292481901616985e+02  7.4047511096013494e+00  7.7801550499893835e+01  1.1648899440541076e+02  1.8939628435778289e+02  1.4014578223104854e+02  7.3176881327752668e+01  1.1187965267891204e+02  8.7782314165831323e+01  8.8204404755505209e+01  8.9205175499103802e+01  1.2053684498403960e+02  1.2258268767641701e+02  1.2069184270412178e+02  1.8534562366231194e+02  1.8329907898592805e+02  1.8519116901731505e+02  1.3605520242691242e+02  1.3402996837954274e+02  1.3592098502286692e+02  8.1891202275659268e+01  8.3916130348648707e+01  8.2025074688945566e+01  4.0404838026577998e+01  4.1792195162878926e+01  4.0404802532082996e+01  4.1792281470889201e+01  4.0404867602176274e+01  3.9017469950015297e+01  3.9017467272990508e+01  1.9324765759103251e+01  2.0712215802097806e+01  1.9325067531224267e+01  2.0711985218385184e+01  1.9324526755014620e+01  1.7937478312218030e+01  1.7937169337586958e+01  2.0310743026615387e+02  8.4353511420561475e+01  8.4206653905400358e+01  8.6107260265258290e+01  1.8284176894449294e+02  1.8108900207181821e+02  1.8298857087295724e+02  1.3359368819480730e+02  1.3184083427960525e+02  1.3374038232878078e+02  1.2303867806789088e+02  1.2289213788927459e+02  1.2479162469010079e+02  1.0208509138777647e+02  1.0101146649047337e+02  1.0088027949437175e+02  1.5854566315694379e+02  1.5750612424550894e+02  1.5737717581459748e+02  1.5438897916998610e+02  1.5542819034620655e+02  1.5555739354159783e+02  5.1202535233582779e+01  4.9449492070551500e+01  4.9854456676022096e+01  5.0797828913169724e+01  1.6727410466702315e+02  1.6551979864322229e+02  1.6592519260191656e+02  1.6686900752396778e+02  0.0000000000000000e+00  0.0000000000000000e+00  1.3696562712812108e+00  2.1101292989919494e+02  2.1101292989919494e+02  2.0967666868595546e+02  2.1101292989919494e+02  0.0000000000000000e+00  7.8027360067601563e+01  1.1671124093778637e+02  1.8923609149974340e+02  1.3992435266878945e+02  2.0723214782211986e+02  2.0724083841299969e+02  2.0723204139698416e+02  2.0724088416412286e+02  1.0696475422918056e+01  9.0533069099089438e+00  1.0622308059141346e+01  1.0554379189359933e+01  9.1292240546675192e+00  7.5611242393753209e+00  8.0304939190289915e+01  8.0335183662832605e+01  1.1897064389231369e+02  1.1900006742555757e+02  1.3764182139272822e+02  1.3761126620952857e+02  1.8696960007786495e+02  1.8664460462134662e+02  7.0921856923744059e+01  7.0475920689173151e+01  1.0962388919128888e+02  1.0916440346264257e+02  7.0172449022624352e+00  7.2921508162883333e+00  8.7845530207995992e+00  3.8459227201710893e+00  3.8552018058406792e+00  5.2057045389453044e+01  5.2461079529802809e+01  1.6812895524151563e+02  1.6853331950838270e+02  4.7961409967169120e+00  3.7419914093140347e+00  3.7677238937265298e+00  5.1548308559556020e+01  5.3212540333300524e+01  5.2711937096358625e+01  1.6761984586473380e+02  1.6928514941266400e+02  1.6878420615808432e+02  8.1147943522994993e+01  7.9963567482927985e+01  7.9705329078132308e+01  1.1987894370091142e+02  1.1867107239116341e+02  1.1841458296542820e+02  1.3675550139889901e+02  1.3796157608828582e+02  1.3821995599516103e+02  1.8611295628560691e+02  1.8702808719986200e+02  1.8752367384209637e+02  7.1415159405862937e+01  6.9777095116019652e+01  7.0262358563605389e+01  1.1011772729699756e+02  1.0846570921775796e+02  1.0895226182621673e+02  6.8770185053989801e+00  5.1205866129022857e+00  5.2697464588832883e+00  1.6876815372369919e+02  1.6693681209721424e+02  1.6618975308509860e+02  1.6510564216334058e+02  1.6802119441541305e+02  2.9864962833977266e+01  3.0819846044482727e+01  3.1774631385145685e+01  2.8909982044461675e+01  2.7955326197690759e+01  6.3204213543394481e+01  6.1389526244514350e+01  6.0530625056094280e+01  5.9575227580083933e+01  6.2345308999259402e+01  3.8661503595998369e+01  4.0394378342680724e+01  4.1265987663580418e+01  4.2127266105980603e+01  3.9533182153285075e+01  1.7582422303803234e+01  1.9315198229010274e+01  2.0186505551966341e+01  2.1048019864645397e+01  1.8453767537316281e+01  5.2695526538221550e+01  5.0118617160529908e+01  5.1949080993269597e+01  5.0865122161779169e+01  4.9034796048755723e+01  6.9829565109977167e+01  7.0748770850525474e+01  7.1321718386360857e+01  1.0863398690621354e+02  1.0949526482537144e+02  1.1006847520451424e+02  1.4806880537272883e+02  1.4699058607678148e+02  1.4658067559500114e+02  8.7530569577803988e+01  8.8579193661016589e+01  8.9010639889612094e+01  9.8261017349753715e+01  9.9099939372527786e+01  9.9636477793841451e+01  9.0161784269941407e+01  9.0583194416731345e+01  9.1540070740335466e+01  1.2649005477943150e+02  1.2926113575398813e+02  1.2740317174808165e+02  1.2834772842153487e+02  1.3020529282045987e+02  1.7939985540819356e+02  1.7752558122787289e+02  1.7660772359413065e+02  1.7565164727639228e+02  1.7848205477869610e+02  6.7937852944717489e+00  8.1730060653738210e+00  6.8187044638729617e+01  6.8679927687448256e+01  9.6314598678606842e+01  9.7906382400659439e+01  9.6823870361355816e+01  9.8411727949135482e+01  3.6548520275757753e+01  3.8138689817033466e+01  3.7056887695978503e+01  3.8641502963424223e+01  1.5260582026505392e+02  1.5419765356614568e+02  1.5311424544390192e+02  1.5469855181043502e+02  4.4261368201937877e+01  4.2671126892051554e+01  4.3753054052479548e+01  4.2168253572862561e+01  1.7087593610532241e+02  1.7036798549558114e+02  1.6032758901664241e+02  1.5873618184952133e+02  1.5981925452040218e+02  1.5823539864531526e+02  2.3180918299623130e+01  2.1590611337901152e+01  2.2672279737047123e+01  2.1087667401215537e+01  1.5467981701675567e+01  1.7058238049700137e+01  1.5976306161605006e+01  1.7561013587985144e+01  5.4802308155796119e+01  5.4294695461603752e+01  1.0687481430073515e+02  1.0736793210936379e+02  1.2113756332742166e+02  1.2003127128603866e+02  1.1953216528663633e+02  1.2164111724218313e+02  1.3549501425643101e+02  1.3658100679175618e+02  1.3710032636168989e+02  1.3497133308973974e+02  1.8474310155880832e+02  1.8585043931301001e+02  1.8634564534696005e+02  1.8424053112920879e