<?xml version="1.0"?>
<VTKFile type="UnstructuredGrid"  version="0.1"  >
<UnstructuredGrid>
<Piece  NumberOfPoints="2690" NumberOfCells="4864">
<Points>
<DataArray  type="Float64"  NumberOfComponents="3"  format="ascii">-5.000779109194493 22.00015775376399 0  -5.603765471405465 21.26265974799695 0  -5.0007630019306 21.50017072860164 0  -5.000745446300797 21.0001590106488 0  -5.603780454122996 21.76266253284951 0  -6.206783188237225 21.52514155616966 0  -9 21.99999999996945 0  -8.396988697823156 21.26253311758465 0  -9 21.49999999997139 0  -9 20.99999999997333 0  -8.396991366046091 21.76253292222592 0  -7.793980198718874 21.52506543532767 0  -9 32.9999999999446 0  -8.397047520034358 32.26253257258349 0  -9 32.49999999994358 0  -9 31.99999999994255 0  -8.397050192020139 32.76253261500629 0  -7.794097845836215 32.52506486051966 0  -5.001169682398871 33.00017081494817 0  -5.520696520836781 32.29652712088222 0  -5.001152864411973 32.50019348668144 0  -5.001134983862038 32.00016539645111 0  -5.520711879810776 32.79653150573507 0  -6.040255370320073 32.59286755785681 0  -5.001916566682011 54.00016378560597 0  -5.604773196094547 54.73765596795686 0  -5.604758473161706 54.23766281833473 0  -6.20759899049173 54.47513808370337 0  -5.001933150648175 54.50017498272214 0  -5.001949576335202 55.00016490430135 0  -9 54.99999999998974 0  -8.47018916997313 54.29614188820277 0  -9 54.49999999998872 0  -9 53.99999999998769 0  -8.470191449824803 54.79614122299749 0  -7.940381073604727 54.59228265373708 0  -9 39.99999999995897 0  -8.397092855418785 40.73753209325434 0  -8.39709018450703 40.23753211958325 0  -7.794182908587892 40.47506377832902 0  -9 40.49999999996 0  -9 40.99999999996102 0  -5.00145365973301 41.00015140339171 0  -5.577657353370189 40.26798162691418 0  -5.001437014724798 40.50017579288384 0  -5.001420071956026 40.00017092271274 0  -5.577672404138206 40.76797900494338 0  -6.153892887089034 40.53577874707074 0  -9 55.99999999999179 0  -8.421997242707462 56.74335499881108 0  -8.421994981014963 56.24335458571314 0  -7.843992335069986 56.48670914733503 0  -9 56.49999999999282 0  -9 56.99999999999384 0  -5.001986981031981 56.00015657550842 0  -5.580013011816592 56.74348200940108 0  -5.579998304592038 56.24348134972195 0  -6.158007847334024 56.48678680528682 0  -5.002004420427365 56.50018027295124 0  -5.002020791478061 57.00016533841534 0  -7.438095728342438 43.00008968796036 0  -6.590541295254426 43.10831045791463 0  -7.19968703028418 43.33744199307169 0  -6.96127976409344 43.67479445081981 0  -6.828948635236036 42.77095717724752 0  -6.219799009883501 42.5418246327048 0  -6.563559185275781 49.00016946897269 0  -7.411069232687177 48.89193905219264 0  -6.801953969277747 48.66281594318936 0  -7.040350190214384 48.32546192061874 0  -7.172673091270053 49.22929222615146 0  -7.781784529654256 49.45841622253312 0  -6.563494116717823 46.00015910039542 0  -7.411026840589288 45.89193241755999 0  -6.80189529722028 45.66280377165349 0  -7.040297917369428 45.32544926487549 0  -7.172624328435107 46.22928682620304 0  -7.781752039017966 46.4584139292553 0  -6.562651296554664 7.00016528004381 0  -7.410477223335892 6.891937211620291 0  -6.801134997119302 6.662811660921333 0  -7.03962013370101 6.325458076390423 0  -7.171992200494445 7.229290785959291 0  -7.781330610288305 7.458416149637871 0  -7.437915578289125 30.00008860897055 0  -6.590263367986123 30.10830813376058 0  -7.199479382228373 30.33743846378794 0  -6.961044621736158 30.67478778330396 0  -6.828698218138642 29.77095775659822 0  -6.219478326585214 29.54182774683683 0  -6.562587524349238 4.000157307851889 0  -7.4104389451637 4.108273046036143 0  -6.801090453642134 4.337480434415106 0  -7.039591973489799 4.674803007598477 0  -7.171937516186682 3.770950127400227 0  -7.781289657330622 3.541744026030754 0  -6.562715996556519 10.00016681744004 0  -7.410522420283411 10.10827940092743 0  -6.801206465658252 10.33748781047227 0  -7.039695509124279 10.67480879118638 0  -7.172033288946967 9.770958570242705 0  -7.78135305558011 9.541750145142791 0  -6.562780812321352 13.00016820849327 0  -7.410561643164237 12.89193957332274 0  -6.801251789060011 12.66281463942513 0  -7.03972419387513 12.32546112215412 0  -7.172089330502155 13.22929335587053 0  -7.781395366695664 13.45841799610673 0  -6.56284576213804 16.00017084274302 0  -7.41060398229696 15.89194031977493 0  -6.801310361732592 15.66281745062997 0  -7.039776396734188 15.32546363633961 0  -7.172138030871485 16.22929351122295 0  -7.78142782901568 16.45841716319099 0  -6.562910612221905 19.00015260287524 0  -7.410649345238295 19.10826835503685 0  -6.801382064972123 19.33747084958685 0  -7.039852076986147 19.6747900748494 0  -7.172179244038243 18.77094865315983 0  -7.781450352473092 18.54174423297191 0  -6.563083450680407 27.00014668947713 0  -7.410762049112328 27.10826462506489 0  -6.80153798134469 27.33746821035167 0  -7.039991070896257 27.67478995284395 0  -7.172308858737397 26.77094196572122 0  -7.781536760659963 26.54173860852371 0  -8.269253279998294 19.0939457425296 0  -8.025352414182839 18.81784473137131 0  -8.390723712233951 18.27087256786594 0  -8.634624866264847 18.54697357726945 0  -9 17.99999999998495 0  -8.269305097639188 27.09394386789993 0  -8.025421527201066 26.81784125813579 0  -8.390766916517025 26.27086915625392 0  -8.634650775293084 26.54697190361804 0  -9 25.99999999995395 0  -8.269232606934471 15.90614988547905 0  -8.025329620051329 16.18228361663674 0  -8.390715378113351 16.72920821079223 0  -8.634618077543141 16.45307467337591 0  -9 16.99999999998883 0  -5.731742638792194 30.0940944001882 0  -5.975609846084136 29.81796084370347 0  -5.610254549578048 29.27102995891619 0  -5.366386812749661 29.5471710103934 0  -5.001027010972225 29.00015744327603 0  -8.269213143036778 12.90614983540129 0  -8.025303657232868 13.182283881767 0  -8.390699148346155 13.72920906882171 0  -8.634608344881187 13.45307499556164 0  -9 13.99999999999401 0  -8.269194924655769 10.09395091390759 0  -8.025274586575811 9.817850537530306 0  -8.390675067963008 9.270875044555384 0  -8.634595692700357 9.546975422517162 0  -9 8.99999999999857 0  -8.269156666286314 4.093947906599152 0  -8.025223711399041 3.817846103834052 0  -8.390643635662748 3.270871775554066 0  -8.634576741555415 3.546973613275556 0  -9 2.999999999998668 0  -8.269174339946776 6.90614865320037 0  -8.025251880753173 7.18228236985312 0  -8.390666764544875 7.729208123640553 0  -8.634588930573129 7.453074423776381 0  -9 7.999999999999485 0  -8.269427033451834 45.90614644518504 0  -8.025588937803244 46.18228000229147 0  -8.39087748697211 46.72920725273455 0  -8.63471529160533 46.45307371148416 0  -9 46.99999999997333 0  -8.269446515535435 48.90614921035179 0  -8.025614924743994 49.1822828046455 0  -8.39089372485611 49.72920773281279 0  -8.634725030829021 49.45307437264764 0  -9 49.99999999997949 0  -5.732119653589478 43.09409636849213 0  -5.975958688039677 42.81796038717982 0  -5.61064547872891 42.27102455526291 0  -5.366805937786904 42.54716885900447 0  -5.001488141222443 42.00015112986881 0  -5.726821269770495 23.91651901160687 0  -5.97553909152488 24.18423764266232 0  -5.612569804347666 24.72609484341526 0  -6.224255669508418 24.4519567712217 0  -5.363852541995138 24.45838384222841 0  -5.000887713571743 25.00015718740915 0  -8.274208173607716 52.08372078601018 0  -8.02555741486932 51.81600126252069 0  -8.388451259891582 51.27414153215524 0  -7.776905482119125 51.54828219150516 0  -8.637102352892024 51.54186104558606 0  -9 50.99999999998153 0  -5.727232537773205 38.08386959723555 0  -5.975904654039611 37.81611568041166 0  -5.612946347964983 37.27429383025466 0  -6.224578017858563 37.5483624074613 0  -5.364273652817923 37.54205674748924 0  -5.001310546415825 37.00014400934339 0  -5.727140683661052 34.91651740497922 0  -5.975834259979525 35.1842349063718 0  -5.612900464614834 35.72609018211261 0  -6.224526593150789 35.45195289337632 0  -5.364207358558534 35.45838140368753 0  -5.001278222003615 36.00015027584593 0  -7.88428216158272 50.50024907031759 0  -7.830593577034274 51.02426583226792 0  -8.442142310898809 50.75012411169747 0  -6.117297245810728 36.5001563732265 0  -6.170937837428989 37.02425838333318 0  -5.559303481535039 36.75017848142473 0  -6.170911718467385 35.97605367403409 0  -5.559288479916797 36.2501769939061 0  -5.977375370907663 25.2601325066783 0  -6.100815114298035 24.8560450195907 0  -5.489131580132444 25.13017393039468 0  -8.027720459038886 25.74587209371579 0  -7.904628174298176 26.14380534597247 0  -8.513860777886695 25.8729360726787 0  -6.942955734037764 34.37601843596263 0  -6.583739419986233 34.91398651654454 0  -6.840626808717831 35.23851943211678 0  -7.19984331521035 34.7005526402101 0  -7.4567294075938 35.02508656343803 0  -7.058577586353151 52.62421216534588 0  -7.417739828867281 52.08624802324771 0  -7.160892539797213 51.76171763478157 0  -6.801730485073373 52.29968224577902 0  -6.544881907835002 51.97515280526785 0  -6.943033309538535 38.62421126129398 0  -6.583807397333783 38.08628774298626 0  -6.840675097991108 37.76172395407608 0  -7.19990080680584 38.29964883028863 0  -7.456769793167052 37.97508607729612 0  -6.942754985075179 23.37601934194004 0  -6.583503591022517 23.9139885717893 0  -6.84041603878973 24.23852219616113 0  -7.199667626307989 23.70055406095975 0  -7.456578782064685 24.02508833151382 0  -7.884101731333065 17.50007444649834 0  -7.83277580384366 18.02090957903123 0  -8.442052103096595 17.7500367794624 0  -7.832765018224976 16.97924589322319 0  -8.442049628068709 17.25003746646379 0  -7.884012659204764 8.500076240913037 0  -7.832682618936975 9.020913206349631 0  -8.442007564366284 8.750038139377791 0  -7.931267295028544 2.415661822104203 0  -7.856277962543249 2.978702715909749 0  -8.465634826934606 2.707831143115098 0  -7.832671868055562 7.97924623632508 0  -8.442005097966165 8.250038066519801 0  -7.833033586633732 49.97933274155075 0  -8.442139844116399 50.25012477796768 0  -6.027691545663577 41.59325265131862 0  -6.123745640448261 42.0675392869076 0  -5
[...]
<PointData  Scalars="f_29"> 
<DataArray  type="Float64"  Name="f_29"  format="ascii">8.1241427783389497e+01  7.8494151476475565e+01  7.9376027383445106e+01  7.7512445058658884e+01  8.0348607942304611e+01  7.9468588867040467e+01  8.1245500308761081e+01  7.8496566126150739e+01  7.9379737623272689e+01  7.7516350041534977e+01  8.0350758364935487e+01  7.9470050840235174e+01  1.2188888602228131e+02  1.1913949909094706e+02  1.2002220792857173e+02  1.1815818282763014e+02  1.2099415692377072e+02  1.2011361863244852e+02  1.2187837755406326e+02  1.1926661021520873e+02  1.2002166325063872e+02  1.1816663683572907e+02  1.2111698265462559e+02  1.2036379562933929e+02  1.9945944446651873e+02  2.0221168627657798e+02  2.0035546072518846e+02  2.0123754400257673e+02  2.0132346966759073e+02  2.0319388968670927e+02  2.0318836818557548e+02  2.0057702149953371e+02  2.0133295560085867e+02  1.9947682146263620e+02  2.0242956168267847e+02  2.0167489130050444e+02  1.4771738074539505e+02  1.5046774445661140e+02  1.4861246568308141e+02  1.4949336161427649e+02  1.4958471181053932e+02  1.5144932689614984e+02  1.5144418162740087e+02  1.4872422807423720e+02  1.4958457822754337e+02  1.4772142897728304e+02  1.5057929453140139e+02  1.4971951146135711e+02  2.0687859674305699e+02  2.0964419663305114e+02  2.0778971493306483e+02  2.0869049770230737e+02  2.0873588135192395e+02  2.1060341074767456e+02  2.0688032036927297e+02  2.0964471289809620e+02  2.0779044516350982e+02  2.0869098404910235e+02  2.0873687246805255e+02  2.1060404973265682e+02  1.5883439681534145e+02  1.5923449209594386e+02  1.6008073150100549e+02  1.6132724140101843e+02  1.5798787841131411e+02  1.5714211151448774e+02  1.8099950993637998e+02  1.8059989764384099e+02  1.7975351497809675e+02  1.7850755795636380e+02  1.8184590995096741e+02  1.8269158968735880e+02  1.6991957047470063e+02  1.6951838465066362e+02  1.6867306603719595e+02  1.6742643000617838e+02  1.7076473025144369e+02  1.7160977632065061e+02  2.5837232923732120e+01  2.5436789561840332e+01  2.4592044420268607e+01  2.3346905157657403e+01  2.6682048723863069e+01  2.7526309886977938e+01  1.1077560263059162e+02  1.1117594330404387e+02  1.1202192446061804e+02  1.1326866333192895e+02  1.0992989247166298e+02  1.0908411342439501e+02  1.4765966692306144e+01  1.5164914835552526e+01  1.6010731964310551e+01  1.7255515094197033e+01  1.3919909434421156e+01  1.3074445683763921e+01  3.6909897081217515e+01  3.7310069909394642e+01  3.8155050446644537e+01  3.9400122194319415e+01  3.6064860974957263e+01  3.5220571776053831e+01  4.7981784214925355e+01  4.7581792398597635e+01  4.6736696841337341e+01  4.5491665879008714e+01  4.8826868372182020e+01  4.9671505477720046e+01  5.9054484982339510e+01  5.8655153469799878e+01  5.7809309765679018e+01  5.6564183522983257e+01  5.9900327973410882e+01  6.0745416194599564e+01  7.0131213440967429e+01  7.0532163993132642e+01  7.1377542068797396e+01  7.2624223525409619e+01  6.9286129267264840e+01  6.8441479583459611e+01  9.9696215662894645e+01  1.0009628169885426e+02  1.0094191988006294e+02  1.0218787491744294e+02  9.8850420719007317e+01  9.8004726907228843e+01  7.0479983516775505e+01  6.9461109916339396e+01  6.7446099533178284e+01  6.8463174473752744e+01  6.6456987199843198e+01  1.0004428335441990e+02  9.9024614523897526e+01  9.7007035581675908e+01  9.8024952851925462e+01  9.6013518663574573e+01  5.8707297347408783e+01  5.9726158807890116e+01  6.1742080457491291e+01  6.0722765194246946e+01  6.2728274158760932e+01  1.1112302937221612e+02  1.1010379657233034e+02  1.0808659167271558e+02  1.0910408958765660e+02  1.0709350038532017e+02  4.7633741771956423e+01  4.8652427893141876e+01  5.0667715863914069e+01  4.9650766352608642e+01  5.1659207031018383e+01  3.7258528496944095e+01  3.6239837054385539e+01  3.4225495691562593e+01  3.5242361296081476e+01  3.3236604231344153e+01  1.5112797770619753e+01  1.4093725666486442e+01  1.2077048972305795e+01  1.3096510234025839e+01  1.1089026457579894e+01  2.5487849026600585e+01  2.6506931737161800e+01  2.8522509577059953e+01  2.7503130801653398e+01  2.9508475409719413e+01  1.6957030166223907e+02  1.7058981414393432e+02  1.7260669327666815e+02  1.7158895682702104e+02  1.7359892223665511e+02  1.8065205256806570e+02  1.8167162425529048e+02  1.8368897499128249e+02  1.8266894036978539e+02  1.8467590211625068e+02  1.5918242390502192e+02  1.5816258237639829e+02  1.5614560036296891e+02  1.5716353515178307e+02  1.5515463345736666e+02  8.8306373298680455e+01  8.9295011515453496e+01  9.1293491386024314e+01  9.0283784421823540e+01  9.0306589187929305e+01  9.2298752036433001e+01  1.9239559456424143e+02  1.9140663160060424e+02  1.8940912417772157e+02  1.9041714216472619e+02  1.9039613096730085e+02  1.8840744438132856e+02  1.4065518179966341e+02  1.3966626037399854e+02  1.3766906796028704e+02  1.3867694139038844e+02  1.3865594660557906e+02  1.3666752945488017e+02  1.2894886613039341e+02  1.2993820985924339e+02  1.3193680077145737e+02  1.3092765791184618e+02  1.3094719708044511e+02  1.3293566901485795e+02  1.8654249960971350e+02  1.8848073846859728e+02  1.8746766313522394e+02  1.3480213518429210e+02  1.3674050876348332e+02  1.3572742693510176e+02  1.3286383717814445e+02  1.3387474732736951e+02  9.3269161986117183e+01  9.1776005735580668e+01  9.2789342560116722e+01  9.5064664398012411e+01  9.6535146201101881e+01  9.5533807938703632e+01  1.2695511956552927e+02  1.2894176465450059e+02  1.3014091007778893e+02  1.2815433027363360e+02  1.2935351919812368e+02  1.9439148544741317e+02  1.9240357689168462e+02  1.9120404800529366e+02  1.9319161743659720e+02  1.9199177980681202e+02  1.4264969144108710e+02  1.4066278938047705e+02  1.3946365240444771e+02  1.4145043821235322e+02  1.4025118288495622e+02  8.6310975061814091e+01  8.8297648191204956e+01  8.9496023903907172e+01  8.7509537335263090e+01  8.8707839519922615e+01  6.4592969538459840e+01  6.6518111129441294e+01  6.5517692595272194e+01  6.2668116555097505e+01  6.3666455693759616e+01  3.1373176896360423e+01  3.3297830208583136e+01  3.2297529393482108e+01  8.9145770296278446e+00  1.0995682471533867e+01  9.9963415231294519e+00  2.9448707831618872e+01  3.0446622141075764e+01  1.8461595910974933e+02  1.8561505429087697e+02  1.5363536776922044e+02  1.5538939080005932e+02  1.5438946620285103e+02  9.1167057453654550e+01  9.0725551168725076e+01  8.9937282458812149e+01  1.8903909086305472e+02  1.8972799269113580e+02  1.9051539104707396e+02  1.3730660443446905e+02  1.3799159263850461e+02  1.3877890586956576e+02  1.3230660592197515e+02  1.3161728091252422e+02  1.3083002417883654e+02  1.0611747004596656e+02  1.0760123642952091e+02  1.0660015752983006e+02  1.6145836037228855e+02  1.5930032140727127e+02  1.6139292536345783e+02  1.7837732582068278e+02  1.8053433416231303e+02  1.7844221165075334e+02  1.6729500936381922e+02  1.6945246196473798e+02  1.6736052432039352e+02  2.3215525348916149e+01  2.5370732380357392e+01  2.3281160767992702e+01  1.7385854773248759e+01  1.5230418857920535e+01  1.7320699431671848e+01  1.1342932720435830e+02  1.1125653845946390e+02  1.1334942171137777e+02  3.9531132154286816e+01  3.7376003210964697e+01  3.9465686003152136e+01  4.5360816337505796e+01  4.7516050857535639e+01  4.5426174773102872e+01  5.6434127477045131e+01  5.8589650664542908e+01  5.6498931787196767e+01  7.2784994972765006e+01  7.0613079746373344e+01  7.2705086267023361e+01  1.0231920181013348e+02  1.0016206079241650e+02  1.0225361825586445e+02  9.6799084504630599e+01  9.7401770590847491e+01  9.8247915062091096e+01  6.7086975541516310e+01  6.7764107995112369e+01  6.8609151367009389e+01  6.2071833729540629e+01  6.1408765994243993e+01  6.0563100467522318e+01  1.0784189427258221e+02  1.0846291439914310e+02  1.0930882459367162e+02  5.0956976958741500e+01  5.0314316979624806e+01  4.9469348442993009e+01  3.3893634166666438e+01  3.4556908680504826e+01  3.5401853526816183e+01  1.2232870950719784e+01  1.2653477018432190e+01  1.3499578771084867e+01  2.8853236775582953e+01  2.8189924430478211e+01  2.7345136448057868e+01  1.5589329974469592e+02  1.5651753743410919e+02  1.5736418779510188e+02  1.8401896299008123e+02  1.8335542528226560e+02  1.8250915630224779e+02  1.7289655113268225e+02  1.7225322475436076e+02  1.7140803568996782e+02  1.5167723374994699e+02  1.5253942924764317e+02  2.0503603108906668e+02  2.0313707440903289e+02  2.0410875373109278e+02  2.0503508599304428e+02  2.0335501056462562e+02  2.0411070329772750e+02  2.0686287302141898e+02  2.0595619025724514e+02  2.0686352504510637e+02  2.0595679413903807e+02  5.2218857525273075e+00  7.6221937338303354e+00  5.7761576639980179e+00  6.3301869589552284e+00  7.0673692363149678e+00  2.1885655194050005e+02  2.1886638479543299e+02  2.2027970137430307e+02  2.1887599153012130e+02  2.2027015956213032e+02  2.2168375583703167e+02  2.1885646596552340e+02  2.1886641911887202e+02  2.2027983605511906e+02  2.2027016724883725e+02  2.2168375583703167e+02  2.1311697415399851e+02  2.1090383527767401e+02  2.1185646289521821e+02  2.1311722066109706e+02  2.1090427184539067e+02  2.1185691274018495e+02  2.8590429436315690e+00  2.8679889202115763e+00  1.4389052566705731e+00  2.8775035503422406e+00  1.4295472278210200e+00  0.0000000000000000e+00  8.2487537096259913e+01  8.1115085922971488e+01  8.2759791845304164e+01  8.0843500738377458e+01  8.2217396267334237e+01  1.2312963681395068e+02  1.2175708381010926e+02  1.2339991857714028e+02  1.2148717344559630e+02  1.2286120770535443e+02  1.4647447805554495e+02  1.4784747867220054e+02  1.4620211683106808e+02  1.4811930844565913e+02  1.4674483578557849e+02  1.9848780864906485e+02  1.9986273754284832e+02  1.9934134438563933e+02  1.9796809365107734e+02  1.9744578357784340e+02  2.8239645750015216e+00  2.8504611554983605e+00  1.4390751767804566e+00  1.4119555103151202e+00  0.0000000000000000e+00  7.6494040174534589e+01  7.7981455838577673e+01  7.7006168331263154e+01  1.1713915236620571e+02  1.1862652780401770e+02  1.1765158519319519e+02  1.5242573701395980e+02  1.5095944756638178e+02  1.5193455939180930e+02  2.0313764938844162e+02  2.0503604968455181e+02  2.0503609133847627e+02  2.0686324827586321e+02  2.0503588644620535e+02  2.0686351179128911e+02  2.0335514319548912e+02  1.5150439843062821e+02  1.5346158790334206e+02  1.5328885606150223e+02  7.8709003120158158e+01  7.9089103066754447e+01  8.0734997387050257e+01  7.9088392101782986e+01  8.1114539242472461e+01  1.1910134471425530e+02  1.1960696914793165e+02  1.2125112961093396e+02  1.1973225601979838e+02  1.2188173725340846e+02  2.0063002910046833e+02  2.0093422647527086e+02  1.9903757881015019e+02  1.5025426242608188e+02  1.4998681808512151e+02  1.5177175182495466e+02  1.4795999757734677e+02  1.4822759453593426e+02  1.4987427544665172e+02  2.0836026084087689e+02  2.0852578241249310e+02  2.0669813609705827e+02  2.0852551513595901e+02  2.1014453660680653e+02  2.0997900055687765e+02  2.1159725450051334e+02  2.0115242710147183e+02  2.0283291361497362e+02  2.1014476897172531e+02  8.2696260560606135e+01  8.1082597192973168e+01  8.2727042334910280e+01  1.2333806995073813e+02  1.2185103039151394e+02  1.2336832795032554e+02  1.4626601351461983e+02  1.4799208013487768e+02  1.4623504971303151e+02  6.5840577784538382e+01  6.3331858130861299e+01  3.2634056235207915e+01  1.0574537483411964e+01  3.0112601107617522e+01  1.8528017520428645e+02  1.9938057729738466e+02  1.9778861891869144e+02  1.9813052726717942e+02  1.9990236294852832e+02  6.4592638839839992e+01  6.3332130242493754e+01  6.4592893289473352e+01  6.5839846344695601e+01  3.1373411181919103e+01  3.0113237843736812e+01  3.1373332044904231e+01  9.2276802363994417e+00  1.0730408200573347e+01  9.0713794561370715e+00  3.2633598309575071e+01  1.8654141095290524e+02  1.8528007336770287e+02  1.8654204203787825e+02  7.5288238398301786e+01  7.7602201390451668e+01  7.6998283738718698e+01  7.5891816032045895e+01  1.1593291836700378e+02  1.1812097745438153e+02  1.1751692046982767e+02  1.1653661308698078e+02  1.5133924271429674e+02  1.5285658142331923e+02  1.5476421579553553e+02  1.5459134756575423e+02  2.1656593659458738e+02  2.1413653317085766e+02  2.1586162417364278e+02  2.1515749850770143e+02  2.1484190673795860e+02  2.1656600255866005e+02  2.1413663838644288e+02  2.1586167118331591e+02  2.1484199958613030e+02  2.1235625096449019e+02  2.1235605867157722e+02  5.2938572730854176e+01  5.1304556987828597e+01  5.2304471435346684e+01  1.7487928696053226e+02  1.7324407371892664e+02  1.7424466540858435e+02  1.8779140056189749e+02  1.3355373517469775e+02  1.3605502359745114e+02  1.8779028136771132e+02  1.3480223933080964e+02  1.3355435443100023e+02  1.3480221248204862e+02  1.3605447545715538e+02  9.4156164565339509e+01  9.5931929445481444e+01  9.5477729045054303e+01  9.4610285582904581e+01  1.1077605234774903e+02  1.0893357630953157e+02  1.1094944635686758e+02  5.9053048007883973e+01  5.8880143302773249e+01  6.0893121116880977e+01  7.0133634364414064e+01  6.8293255580891028e+01  7.0306781825830086e+01  9.9697656506283167e+01  9.7854373441547040e+01  9.9870988250463128e+01  1.4766853173304325e+01  1.2925830322540339e+01  1.4939887445436193e+01  2.5833218345888355e+01  2.5660400134182417e+01  2.7673439206976617e+01  3.6912632517345834e+01  3.5072491274091988e+01  3.7085643228158204e+01  4.7979939400723921e+01  4.7806847746330156e+01  4.9820987397784954e+01  1.6991691994546991e+02  1.6974362165918006e+02  1.7175931829327399e+02  1.8099804389502737e+02  1.8082501569071536e+02  1.8283942335267247e+02  1.5883583142491872e+02  1.5699334279089544e+02  1.5900916074613679e+02  7.7468591966189749e+01  7.5758259344231874e+01  7.6226982620581580e+01  1.1800111299361457e+02  1.1641698275585753e+02  1.1690027276946041e+02  1.0485022471849541e+02  1.0365369478414688e+02  1.0498821138991755e+02  1.0351561008814143e+02  1.0471241422276043e+02  1.6424100840400550e+02  1.6291783258768973e+02  1.6437691764989364e+02  1.6278130943181034e+02  1.6410485142888794e+02  1.6451290196435673e+02  1.6583587001668744e+02  1.6597236788287879e+02  1.6464921880519736e+02  1.0697972487639302e+02  1.0555260818641214e+02  1.0641506836110700e+02  7.7848409643428127e+01  1.1863194596390477e+02  7.7787366717865218e+00  8.1732747772853287e+01  1.2237640332160480e+02  1.9897264761782299e+02  1.4722976629326854e+02  7.6874235175473430e+01  1.1753391711293871e+02  9.2218069872797457e+01  9.2661497470634728e+01  9.3712870851102437e+01  1.2662896319753230e+02  1.2877827756714916e+02  1.2679179865203808e+02  1.9471695180162359e+02  1.9256681814351893e+02  1.9455468428563231e+02  1.4293228521697540e+02  1.4080460264989213e+02  1.4279127885322478e+02  8.6029130603283960e+01  8.8156423811370871e+01  8.6169767596066407e+01  4.2445923991898084e+01  4.3903384439586837e+01  4.2445892123210747e+01  4.3903470396054011e+01  4.2445949508859798e+01  4.0988457465185476e+01  4.0988448410432405e+01  2.0300846827078704e+01  2.1758386941785091e+01  2.0301169297185478e+01  2.1758139805557839e+01  2.0300590266368108e+01  1.8843482994668584e+01  1.8843152375071526e+01  2.1337800220598382e+02  8.8615916166707350e+01  8.8461636435257759e+01  9.0458315265297344e+01  1.9208635323951086e+02  1.9024488246324057e+02  1.9224058829381045e+02  1.4034625659939650e+02  1.3850474679393616e+02  1.4050037140122799e+02  1.2925732533365866e+02  1.2910337653048359e+02  1.3109892052139705e+02  1.0724401948288983e+02  1.0611610763298546e+02  1.0597828371531929e+02  1.6656068750633466e+02  1.6546854076487949e+02  1.6533307619497344e+02  1.6219365188908100e+02  1.6328545249799441e+02  1.6342118614013299e+02  5.3789247330561054e+01  5.1947609503713409e+01  5.2373044571214855e+01  5.3364084534446860e+01  1.7573079648749891e+02  1.7388770830774934e+02  1.7431362270749295e+02  1.7530519481254609e+02  0.0000000000000000e+00  0.0000000000000000e+00  1.4388300498944795e+00  2.2168375583703167e+02  2.2168375583703167e+02  2.2027983720300242e+02  2.2168375583703167e+02  0.0000000000000000e+00  8.1969990500947418e+01  1.2260989538288572e+02  1.9880435678984480e+02  1.4699717551251069e+02  2.1771154778944936e+02  2.1772067965942932e+02  2.1771143870325730e+02  2.1772072856618081e+02  1.1236736493715794e+01  9.5105741282412115e+00  1.1158831238331175e+01  1.1087497896850222e+01  9.5903217922493216e+00  7.9430110763714437e+00  8.4362680259186590e+01  8.4394446740758028e+01  1.2498355100626452e+02  1.2501445799901482e+02  1.4459917069742414e+02  1.4456707088474360e+02  1.9642313489710534e+02  1.9608169396755275e+02  7.4505220615428541e+01  7.4036749830298547e+01  1.1516406266022892e+02  1.1468133782478687e+02  7.3716412654286865e+00  7.6604537805997124e+00  9.2282385343035980e+00  4.0401555156462576e+00  4.0499067306612977e+00  5.4686934009658884e+01  5.5111389109518399e+01  1.7662890185701832e+02  1.7705373206071408e+02  5.0383700627004053e+00  3.9309782084738885e+00  3.9580119948455739e+00  5.4152483233204009e+01  5.5900821539993224e+01  5.5374939679244527e+01  1.7609402400933467e+02  1.7784360594788490e+02  1.7731733082914857e+02  8.5248288865243367e+01  8.4004039364812712e+01  8.3732746107765067e+01  1.2593778232165896e+02  1.2466882069709141e+02  1.2439935927287803e+02  1.4366800300935142e+02  1.4493509810682320e+02  1.4520654156575736e+02  1.9552313653857479e+02  1.9648459288733989e+02  1.9700526241594255e+02  7.5023449500677359e+01  7.3302581566527053e+01  7.3812340230388415e+01  1.1568287555915605e+02  1.1394730605783788e+02  1.1445844565824211e+02  7.2243351868696362e+00  5.3791933548534114e+00  5.5358787815047092e+00  1.7730045908436531e+02  1.7537644259174220e+02  1.7459157533145631e+02  1.7345260842032414e+02  1.7651569647249445e+02  3.1373534002253763e+01  3.2376656575981890e+01  3.3379683908476458e+01  3.0370302021279958e+01  2.9367419494590159e+01  6.6397486313611822e+01  6.4491079149456908e+01  6.3588765124038829e+01  6.2585083451136825e+01  6.5495167932298571e+01  4.0614514756978870e+01  4.2434948213466114e+01  4.3350595252240900e+01  4.4255397870282849e+01  4.1530234091152451e+01  1.8470501005410803e+01  2.0290808819184278e+01  2.1206127246491722e+01  2.2111166987614425e+01  1.9385859041031480e+01  5.5357693183652025e+01  5.2650558468603656e+01  5.4573523104551192e+01  5.3434790843674982e+01  5.1511972528273681e+01  7.3357722980115128e+01  7.4323397831396619e+01  7.4925306949287716e+01  1.1412408135250863e+02  1.1502892465707659e+02  1.1563111547387297e+02  1.5555370671921065e+02  1.5442093487215737e+02  1.5399028536700152e+02  9.1953584836270878e+01  9.3055231504381041e+01  9.3508485091454091e+01  1.0322658664533832e+02  1.0410792863055282e+02  1.0467160135290688e+02  9.4717851631753049e+01  9.5160561247441578e+01  9.6165822718002332e+01  1.3288327994080944e+02  1.3579453276608444e+02  1.3384258772199132e+02  1.3483491903945603e+02  1.3678644453536884e+02  1.8847023874702589e+02  1.8650109938173605e+02  1.8553678397450409e+02  1.8453232074724397e+02  1.8750598254571844e+02  7.1369131979804221e+00  8.5857990711886263e+00  7.1632166910595373e+01  7.2149951458898130e+01  1.0118173961068845e+02  1.0285400284884253e+02  1.0171675477910432e+02  1.0338487515588105e+02  3.8394756208528712e+01  4.0065262561820546e+01  3.8928799459267132e+01  4.0593448490561968e+01  1.6032028147621853e+02  1.6199265785798852e+02  1.6085442290704040e+02  1.6251886577053338e+02  4.6497317289872640e+01  4.4826721638297471e+01  4.5963315785775478e+01  4.4298459360396038e+01  1.7951489716839723e+02  1.7898124059928224e+02  1.6843275796740753e+02  1.6676082629105807e+02  1.6789870086039389e+02  1.6623473356592066e+02  2.4351792953386163e+01  2.2681148956782728e+01  2.3817456684266570e+01  2.2152819311833749e+01  1.6249239658226937e+01  1.7919816659956137e+01  1.6783231673999509e+01  1.8447956652201370e+01  5.7570929798370351e+01  5.7037664108072576e+01  1.1227595790112609e+02  1.1279400290303168e+02  1.2726006529262176e+02  1.2609782354980061e+02  1.2557349810907770e+02  1.2778908323543286e+02  1.4234374959338393e+02  1.4348469327766111e+02  1.4403026919737542e+02  1.4179358779780583e+02  1.9408391722848782e+02  1.9524731576735184e+02  1.9576755305988956e+02  1.9355592187253365e