<?xml version="1.0"?>
<VTKFile type="UnstructuredGrid"  version="0.1"  >
<UnstructuredGrid>
<Piece  NumberOfPoints="2690" NumberOfCells="4864">
<Points>
<DataArray  type="Float64"  NumberOfComponents="3"  format="ascii">-5.106271785666424 22.02319689686478 0  -5.690610104453907 21.2858953674971 0  -5.104211298687503 21.52509227375222 0  -5.101682418456774 21.02327927240878 0  -5.692746173453711 21.78633390357968 0  -6.279117988255808 21.54573106850718 0  -9 21.99999999996945 0  -8.412395222135558 21.26734769206234 0  -9 21.49999999997139 0  -9 20.99999999997333 0  -8.412773486223418 21.76732097335923 0  -7.825193711664465 21.53458003177073 0  -9 32.9999999999446 0  -8.420635798360181 32.26727096177393 0  -9 32.49999999994358 0  -9 31.99999999994255 0  -8.421013111112364 32.76727869190506 0  -7.841669965392094 32.53450073801226 0  -5.160909979256727 33.02504390856615 0  -5.656918275697123 32.32114890970894 0  -5.158775157797437 32.52838859919306 0  -5.156023616198701 32.02423372627187 0  -5.65914060111272 32.82179846066588 0  -6.157262243910477 32.61494123902789 0  -5.267637494101807 54.02382079766074 0  -5.833534056783437 54.76019315285542 0  -5.831418094679287 54.26119676647225 0  -6.394787033476576 54.49509151329724 0  -5.270196407333707 54.5256357019114 0  -5.272312949310906 55.02401047590863 0  -9 54.99999999998974 0  -8.505556272061876 54.30019530903567 0  -9 54.49999999998872 0  -9 53.99999999998769 0  -8.505895746870797 54.80009247201962 0  -8.011524125243065 54.6002188633206 0  -9 39.99999999995897 0  -8.427047951422255 40.74218962136901 0  -8.42667031811664 40.24219565184691 0  -7.853702394013546 40.48431965577819 0  -9 40.49999999996 0  -9 40.99999999996102 0  -5.201034482859507 41.02208364407736 0  -5.745693055280175 40.29163541874409 0  -5.198910678734491 40.5257195264657 0  -5.196392720873876 40.02490277724632 0  -5.747828815965243 40.79126140857866 0  -6.294595704513751 40.55635876736922 0  -9 55.99999999999179 0  -8.462305630759406 56.74766064918837 0  -8.46197132797985 56.2475950315515 0  -7.924292422775809 56.49519064637705 0  -9 56.49999999999282 0  -9 56.99999999999384 0  -5.277914390528422 56.02270600752633 0  -5.819123156682262 56.76613439096717 0  -5.817056683415142 56.26603309138844 0  -6.355706592372174 56.50647973308805 0  -5.280631784111054 56.52640387218783 0  -5.282744662973921 57.02410289477333 0  -7.520088888885998 43.01314672534922 0  -6.71739120993715 43.12871565594258 0  -7.294941101996322 43.35271761776177 0  -7.069983700372539 43.69230459177837 0  -6.942336292909691 42.78899861439587 0  -6.364257930114304 42.56486326363449 0  -6.709404997371255 49.02487628912485 0  -7.505958914038326 48.90790705465753 0  -6.932555285803041 48.68513302158865 0  -7.155941092078797 48.34531144829337 0  -7.282598414664708 49.24760347195205 0  -7.855425180143452 49.47050739126894 0  -6.700267686445285 46.02335738021166 0  -7.500001350770187 45.90691749927967 0  -6.924363047063135 45.68332978462035 0  -7.148671970412643 45.34342310086188 0  -7.275704783675431 46.24680427906405 0  -7.850808612277028 46.47016471098298 0  -6.582539441993523 7.02413734994049 0  -7.423228592866518 6.907541238561121 0  -6.818164262467352 6.684380384723909 0  -7.054004117608486 6.344628338347441 0  -7.187401511356234 7.247287965513808 0  -7.791932542255767 7.470423223560759 0  -7.494646777029818 30.01300010843741 0  -6.678133016872867 30.1283830164321 0  -7.265632122042097 30.35220983411032 0  -7.036816730496363 30.69133625702176 0  -6.906947658999101 29.78909445152668 0  -6.318908394762558 29.56532271577738 0  -6.574031050163925 4.02296889636211 0  -7.418121416076774 4.123158540932232 0  -6.812219357050619 4.358260872804286 0  -7.050245389902903 4.693478653411749 0  -7.180106562058604 3.78789582892942 0  -7.786467208884224 3.552970928240268 0  -6.591312453091277 10.02433458802502 0  -7.42935056737157 10.12407218395864 0  -6.827848709929229 10.35932336229107 0  -7.064210964063959 10.69431410332889 0  -7.192969571616312 9.789107075120285 0  -7.794973116991029 9.553848511987708 0  -6.600110734049084 13.02456297623989 0  -7.434670057006352 12.90788363039094 0  -6.83400051122629 12.68481407511816 0  -7.068103948091675 12.34507204428854 0  -7.200568864605299 13.24765962149759 0  -7.800708335753856 13.47069013778315 0  -6.608981325603507 16.02493747858427 0  -7.440475267759544 15.90799583991535 0  -6.841999606091116 15.6852172102739 0  -7.075239671577503 15.34543550253363 0  -7.207256564017795 16.24768756179975 0  -7.805183554067376 16.47057762345737 0  -6.618223495746169 19.02234191249822 0  -7.446935704185794 19.12250773908094 0  -6.852242880902081 19.35692192689864 0  -7.08603929014532 19.69164388000141 0  -7.213117296025999 18.7877111170285 0  -7.808385560117614 18.5530168968094 0  -6.642460070903445 27.02151035480667 0  -7.462746622363175 27.12198840920095 0  -6.874052867467642 27.35656414538563 0  -7.105458757168838 27.69165242526939 0  -7.231341677416647 26.78676598280657 0  -7.82055434821604 26.55221800863948 0  -8.285920101540285 19.10048175695901 0  -8.047239507722159 18.82671246560929 0  -8.403981317973701 18.27657372765107 0  -8.642703027942575 18.55034351860742 0  -9 17.99999999998495 0  -8.29319477252508 27.10022010503022 0  -8.056956544694147 26.82622212643021 0  -8.41007472510808 26.2760871657165 0  -8.646351603273978 26.55010551691312 0  -9 25.99999999995395 0  -8.282979118212298 15.91349844808635 0  -8.043996951185083 16.19205127254646 0  -8.402796534127656 16.73523675243263 0  -8.641737580059319 16.45671134461928 0  -9 16.99999999998883 0  -5.85094285932558 30.12231814811205 0  -6.08483705393404 29.84379729790328 0  -5.730343053974169 29.29978552404481 0  -5.496455511723913 29.57940474220633 0  -5.140643645120205 29.02321835062261 0  -8.280305011718854 12.91348716962725 0  -8.040424487780696 13.19208380952657 0  -8.400551176748971 13.73535522175772 0  -8.640394470846401 13.45675486478094 0  -9 13.99999999999401 0  -8.277835021299595 10.10121525553686 0  -8.036483488353971 9.8275327730399 0  -8.397287058697327 9.276920578884903 0  -8.638679404393899 9.55060306535713 0  -9 8.99999999999857 0  -8.272690005097999 4.100782634846069 0  -8.029649526259183 3.826895961401386 0  -8.393074746783386 3.276451878256284 0  -8.636136842470654 3.55034331337531 0  -9 2.999999999998668 0  -8.275048252397713 6.913315867955409 0  -8.033408560039513 7.191864964908805 0  -8.396162406989198 7.735218368475071 0  -8.637763674382917 7.456672072892 0  -9 7.999999999999485 0  -8.310345633448641 45.91302826316694 0  -8.080494056682536 46.19156888562687 0  -8.425606043445791 46.73512573718258 0  -8.655417822291145 46.4565876438477 0  -9 46.99999999997333 0  -8.313088020713513 48.91344454680429 0  -8.084168576484421 49.19198961689125 0  -8.42792495074 49.73519881617995 0  -8.656801815846276 49.45668781990221 0  -9 49.99999999997949 0  -5.904243796311089 43.12260554796131 0  -6.134160228291441 42.84373318785327 0  -5.785654410857564 42.2990047390261 0  -5.555757441594065 42.57910739180722 0  -5.205859497009217 42.02225065311571 0  -5.821326856933787 23.94501317844572 0  -6.063845451302609 24.21023043424272 0  -5.713754823141215 24.75477335570159 0  -6.306184209971394 24.47552773441622 0  -5.471402525652175 24.4906551654172 0  -5.121211846685346 25.02299623343981 0  -8.320558234200007 52.09018131461717 0  -8.087444292184303 51.82481772929543 0  -8.426855919785718 51.27982635185601 0  -7.854154734769571 51.55952061089171 0  -8.660018676085491 51.54518863980539 0  -9 50.99999999998153 0  -5.879113330026691 38.11205863050309 0  -6.115214253787404 37.84166234557971 0  -5.766658283326011 37.3023044016651 0  -6.351487975551919 37.57133040689084 0  -5.530562609140289 37.57403733510061 0  -5.180591285822421 37.02121032069441 0  -5.86610002980723 34.94479190471996 0  -6.105240164532296 35.2098412317412 0  -5.760147757188785 35.7540889029458 0  -6.344201012155812 35.4749645573178 0  -5.521158897763299 35.49030952765154 0  -5.176003655388376 36.02187178090087 0  -7.953226653739806 50.51098411522027 0  -7.903651093948896 51.03528231330471 0  -8.476794339569542 50.75543034815323 0  -6.245322945698325 36.52289586683462 0  -6.298430595246717 37.04696981521334 0  -5.713147773351353 36.77614171407598 0  -6.294724947343533 35.99876878431779 0  -5.710972400662971 36.2758579039396 0  -6.069516599846025 25.28515928495056 0  -6.187803552038265 24.88038950669024 0  -5.59563727182163 25.15832873395954 0  -8.05791688001662 25.75415896137739 0  -7.939175539785233 26.1531875740528 0  -8.529032713950214 25.87708346785894 0  -7.028862209325859 34.39284057376747 0  -6.686286017082154 34.93404272795007 0  -6.933143039023112 35.2563009134377 0  -7.27575206418248 34.71529568261965 0  -7.522430107049067 35.03770872414565 0  -7.183955506610534 52.64099184341929 0  -7.518794016362049 52.10038355195822 0  -7.277562878049551 51.77848611678191 0  -6.942748857908973 52.31916924904702 0  -6.701318383936986 51.99741214676256 0  -7.039842204876843 38.64088193032352 0  -6.695911758138174 38.10624180806237 0  -6.939981331533712 37.77943527510605 0  -7.283890235954962 38.31428600552615 0  -7.528147242203792 37.98763673413873 0  -7.000727524688611 23.39296438545832 0  -6.653215325813197 23.9343335058588 0  -6.903566533846687 24.25669903184102 0  -7.251115964917877 23.71549550029148 0  -7.501295560111425 24.03796136585257 0  -7.907299816167945 17.51088329821048 0  -7.857804647858207 18.03198525135512 0  -8.453825940887342 17.75537877727775 0  -7.856273340596958 16.99074314431605 0  -8.453474230694891 17.25547671449361 0  -7.895106655001398 8.511128526938075 0  -7.845009388693152 9.032490801781478 0  -8.447717966488435 8.755566628554595 0  -7.93465063316121 2.425267308856935 0  -7.86049398451121 2.989089990927643 0  -8.467479379977739 2.712665887787326 0  -7.843552780614743 7.990781956760326 0  -8.44738387612496 8.255556460983064 0  -7.904360025886929 49.99075956933212 0  -8.476430588435072 50.25552939892876 0  -6.178574630499348 41.61557135713367 0  -6.271479107609911 42.09032350356875 0 
[...]
<PointData  Scalars="f_29"> 
<DataArray  type="Float64"  Name="f_29"  format="ascii">1.8584532340672448e+02  1.7937649347820636e+02  1.8144629021513754e+02  1.7705715970866410e+02  1.8374936679215048e+02  1.8165721053866281e+02  1.8574903932318031e+02  1.7928450541963025e+02  1.8134870506822520e+02  1.7695485264420427e+02  1.8365897135546010e+02  1.8160213795038035e+02  2.8321848926240716e+02  2.7655270599906703e+02  2.7868082834760003e+02  2.7415121628942836e+02  2.8106369913118152e+02  2.7894055025350173e+02  2.8328980096330474e+02  2.7694330591720791e+02  2.7877272384840643e+02  2.7427184333407962e+02  2.8144569723691831e+02  2.7960226973216481e+02  4.7771322466557677e+02  4.8481138937445769e+02  4.8002474816533123e+02  4.8228564159376020e+02  4.8251857202951044e+02  4.8734675517127920e+02  4.8724112248982038e+02  4.8051046951719275e+02  4.8244798741092933e+02  4.7765559879933306e+02  4.8529749713520374e+02  4.8336346064087866e+02  3.4674040243985178e+02  3.5359127998812664e+02  3.4898101691519241e+02  3.5118916871492587e+02  3.5137877850101597e+02  3.5601250822468893e+02  3.5610536278087915e+02  3.4934010473127682e+02  3.5147624303527192e+02  3.4684190311055329e+02  3.5395877621285899e+02  3.5180499037675969e+02  4.9679571631813474e+02  5.0397786200096056e+02  4.9917143408464034e+02  5.0152347410083752e+02  5.0160937941398555e+02  5.0644806052921274e+02  4.9688342046992659e+02  5.0404547472978675e+02  4.9924243083717414e+02  5.0156697261649680e+02  5.0169201607681538e+02  5.0653303914099109e+02  3.7447899728193062e+02  3.7549562465626713e+02  3.7760373581308784e+02  3.8073285882368390e+02  3.7237554582396547e+02  3.7027170412519160e+02  4.3037714008324372e+02  4.2933648703289032e+02  4.2720313869078268e+02  4.2403228579048340e+02  4.3251423630051289e+02  4.3464847869992559e+02  4.0233031030009539e+02  4.0129730361552492e+02  3.9918686040414138e+02  3.9604454564987896e+02  4.0444533679766363e+02  4.0655816412605049e+02  5.7778820696070902e+01  5.6849818482867306e+01  5.4961028403927699e+01  5.2145402456248242e+01  5.9671287215246721e+01  6.1561052379374999e+01  2.5630565655250899e+02  2.5728793330281218e+02  2.5932431015905098e+02  2.6234784356931874e+02  2.5427556811441846e+02  2.5224597202608146e+02  3.2881941057747021e+01  3.3755596173503996e+01  3.5665040827850149e+01  3.8449349974448545e+01  3.0976354764209713e+01  2.9070852589294205e+01  8.2913877208070289e+01  8.3798686881077302e+01  8.5747396635393130e+01  8.8581727803546102e+01  8.0968205170732162e+01  7.9024505450439889e+01  1.0826121203273236e+02  1.0731422254334628e+02  1.0539252855477010e+02  1.0252598960498624e+02  1.1018603787533472e+02  1.1210864527477041e+02  1.3382979491128060e+02  1.3287847714777740e+02  1.3093510161677216e+02  1.2804348972863926e+02  1.3577681453172079e+02  1.3772092732121257e+02  1.5965782681493280e+02  1.6057965402060992e+02  1.6257828534876654e+02  1.6550206018876347e+02  1.5766553621985159e+02  1.5567145583885377e+02  2.2966937746845335e+02  2.3061136759445512e+02  2.3265213443492209e+02  2.3563714005791414e+02  2.2763433700658646e+02  2.2559682402442562e+02  1.6043201989855697e+02  1.5805234309181611e+02  1.5332290087394361e+02  1.5569456476299919e+02  1.5098878667057414e+02  2.3046307736399692e+02  2.2802996856645163e+02  2.2319381284342657e+02  2.2561924457764880e+02  2.2080051933928638e+02  1.3297056864344222e+02  1.3534507990970795e+02  1.4001688068231294e+02  1.3763799159090644e+02  1.4229116919667715e+02  2.5716204405318524e+02  2.5470569098974423e+02  2.4985876816450977e+02  2.5228472093702243e+02  2.4748629822242773e+02  1.0740210542969902e+02  1.0975467125370724e+02  1.1437973023170120e+02  1.1202822947518010e+02  1.1664098427737093e+02  8.3649682015118756e+01  8.1337624968340492e+01  7.6737741620524531e+01  7.9042513630224661e+01  7.4466672728517366e+01  3.3613295532860811e+01  3.1342229256740271e+01  2.6824646661320987e+01  2.9093556519684594e+01  2.4602351317264858e+01  5.6936185606001288e+01  5.9247980450908514e+01  6.3793357573800535e+01  6.1477756008364324e+01  6.6003904565231210e+01  4.0139936203417335e+02  4.0397805568460268e+02  4.0905352463896298e+02  4.0647553494894134e+02  4.1153880158069461e+02  4.2944072653616672e+02  4.3204392175120705e+02  4.3716885734135877e+02  4.3456132926828474e+02  4.3966856270055507e+02  3.7536729333685810e+02  3.7282098443723919e+02  3.6779726722428080e+02  3.7031331302978015e+02  3.6534179118965579e+02  2.0252287712105687e+02  2.0487548894794563e+02  2.0965078497196393e+02  2.0722666625900760e+02  2.0727344855272622e+02  2.1206845387859096e+02  4.5944648833215905e+02  4.5691750784148780e+02  4.5178338749737372e+02  4.5438802625382402e+02  4.5430422491389595e+02  4.4919274262181995e+02  3.2930151593192488e+02  3.2686478608311546e+02  3.2196013174449962e+02  3.2442644931122578e+02  3.2436161697681410e+02  3.1951409496426567e+02  3.0051622647917060e+02  3.0294460160512449e+02  3.0786875175619076e+02  3.0537200657339980e+02  3.0541174319689463e+02  3.1035118592898004e+02  4.4446846169747761e+02  4.4942819144896640e+02  4.4681623185453174e+02  3.1491388349397442e+02  3.1966889282314520e+02  3.1720717929198111e+02  3.1013732752111531e+02  3.1264570191132151e+02  2.1435645754625500e+02  2.1078845228521146e+02  2.1323072092497210e+02  2.1856878177235942e+02  2.2208251700362266e+02  2.1967343571397996e+02  2.9562970463281272e+02  3.0049428058939759e+02  3.0342915477394956e+02  2.9855806059087797e+02  3.0148809761618099e+02  4.6460809348118465e+02  4.5949344756555558e+02  4.5642316565690436e+02  4.6153245044611299e+02  4.5845990260993221e+02  3.3422421154585209e+02  3.2931683384651700e+02  3.2635409888085383e+02  3.3125462061415539e+02  3.2828673142104157e+02  1.9778192883375587e+02  2.0249744105224238e+02  2.0533993126043168e+02  2.0061820175639625e+02  2.0345571400444550e+02  1.4667537924444881e+02  1.5117309661138250e+02  1.4881708047843563e+02  1.4219330786287262e+02  1.4449722385537143e+02  7.0273812125240028e+01  7.4649318431034345e+01  7.2354934798120539e+01  1.9786843503514255e+01  2.4428928951960085e+01  2.2182047417353786e+01  6.5912841147037511e+01  6.8152441859614854e+01  4.3955358770664731e+02  4.4208183639278440e+02  3.6154772686500496e+02  3.6590741707735270e+02  3.6343861996091010e+02  2.0931270160531795e+02  2.0827123322824423e+02  2.0638178880793689e+02  4.5088133709278674e+02  4.5263448967203720e+02  4.5466949329417736e+02  3.2103933685851291e+02  3.2273382098327829e+02  3.2466005218114969e+02  3.0874452930731474e+02  3.0705986979219756e+02  3.0511321930347651e+02  2.4512085738455244e+02  2.4868155922731873e+02  2.4629818384108191e+02  3.8108090119203621e+02  3.7566521395738971e+02  3.8090849181468241e+02  4.2367675914008987e+02  4.2915743716720260e+02  4.2385536464137425e+02  3.9568724394883941e+02  4.0111865856276529e+02  3.9586674940681229e+02  5.1823933099445135e+01  5.6687894751503350e+01  5.1985999036206437e+01  3.8718243581282657e+01  3.3891082914891463e+01  3.8585247171841765e+01  2.6275301016072541e+02  2.5748747335645470e+02  2.6255258893539786e+02  8.8851622886769647e+01  8.3934864820194576e+01  8.8718019213226697e+01  1.0219743081426232e+02  1.0714899289054219e+02  1.0236299105401729e+02  1.2771658284163667e+02  1.3271386546577702e+02  1.2788091078423534e+02  1.6585659740289131e+02  1.6075868079727312e+02  1.6568196578326146e+02  2.3593050424759974e+02  2.3075888746328286e+02  2.3578540282741278e+02  2.2273517264788217e+02  2.2416579351682739e+02  2.2620091654988451e+02  1.5252339439707575e+02  1.5409744298557888e+02  1.5608902082449802e+02  1.4082969613832989e+02  1.3927621313363125e+02  1.3732826360193783e+02  2.4923886843801864e+02  2.5074389068175532e+02  2.5276988639625537e+02  1.1509504007420483e+02  1.1360228002637267e+02  1.1167659723750963e+02  7.6028882342506165e+01  7.7527009419662008e+01  7.9469332893835059e+01  2.7210911129544595e+01  2.8141436480601918e+01  3.0045287386239206e+01  6.4588622693929409e+01  6.3075691753653281e+01  6.1181850971237331e+01  3.6714636065928147e+02  3.6870987247889849e+02  3.7081082973682021e+02  4.3805503820260680e+02  4.3635268911596251e+02  4.3421446973563138e+02  4.0982861420929640e+02  4.0819378669193128e+02  4.0607757214792520e+02  3.5667708513999276e+02  3.5882582041710009e+02  4.9209591204456467e+02  4.8719220762517813e+02  4.8969770372161696e+02  4.9204822890621239e+02  4.8770514596538879e+02  4.8964220807596928e+02  4.9678504236609274e+02  4.9442159664838118e+02  4.9683182684805291e+02  4.9449015561811501e+02  1.1577810457038874e+01  1.6920065387298337e+01  1.2815868426451967e+01  1.4051570044438138e+01  1.5678665272585130e+01  5.2796492439157635e+02  5.2799486280656390e+02  5.3169046679043220e+02  5.2802293900549830e+02  5.3166314587214197e+02  5.3536412537879596e+02  5.2796590378529038e+02  5.2799711516699449e+02  5.3169196537249172e+02  5.3166402251714987e+02  5.3536412537879596e+02  5.1300719786250056e+02  5.0726244380967927e+02  5.0971898633010909e+02  5.1303960879555041e+02  5.0730480007043946e+02  5.0977633041074512e+02  6.3289302883532992e+00  6.3555440618579704e+00  3.1882730734183191e+00  6.3797121702032724e+00  3.1638773989561662e+00  0.0000000000000000e+00  1.8872825504980619e+02  1.8549618849417328e+02  1.8938925902788282e+02  1.8483515577606906e+02  1.8807137094149363e+02  2.8628539847969927e+02  2.8295057639296948e+02  2.8696042157044724e+02  2.8227567886405461e+02  2.8561405733965495e+02  3.4369392385162871e+02  3.4711057973464892e+02  3.4303376725124593e+02  3.4776818671843807e+02  3.4434846473648861e+02  4.7518832769292851e+02  4.7873949117494965e+02  4.7737578610059279e+02  4.7383462457116201e+02  4.7247423402328013e+02  6.2548481742620501e+00  6.3184432764351719e+00  3.1889415433988630e+00  3.1253166184679135e+00  0.0000000000000000e+00  1.7464824936229937e+02  1.7815464322544602e+02  1.7586689580715455e+02  2.7170633841732683e+02  2.7532282284468369e+02  2.7293575655471130e+02  3.5847591127316213e+02  3.5483157973110758e+02  3.5723765332731278e+02  4.8718194648213279e+02  4.9209211268757775e+02  4.9208090389471243e+02  4.9680023118335049e+02  4.9206713441741465e+02  4.9682141154599577e+02  4.8772065034564861e+02  3.5623152647838435e+02  3.6110274360197735e+02  3.6065786144894594e+02  1.7983732616120784e+02  1.8071923524725011e+02  1.8461412316367813e+02  1.8074678248345225e+02  1.8552156672034619e+02  2.7650595987240899e+02  2.7772276798027031e+02  2.8173281812334096e+02  2.7805466216713558e+02  2.8327898262365716e+02  4.8068838391592396e+02  4.8148878452387066e+02  4.7657976038351080e+02  3.5310765790973420e+02  3.5245695622878281e+02  3.5688332543268444e+02  3.4741425065836586e+02  3.4806809063623524e+02  3.5215001170940405e+02  5.0068984187699624e+02  5.0112952906863046e+02  4.9638418467424884e+02  5.0110788276536266e+02  5.0530485148750671e+02  5.0488650723142553e+02  5.0908313430486044e+02  4.8202654910937821e+02  4.8638267729904692e+02  5.0532501781110562e+02  1.8926417855363002e+02  1.8546405312742652e+02  1.8932710613294455e+02  2.8683402271389508e+02  2.8321951092473961e+02  2.8689777649901657e+02  3.4321399962574895e+02  3.4750935076749306e+02  3.4312900019869380e+02  1.4960019990850023e+02  1.4374995451031714e+02  7.3151947403307744e+01  2.3498958239359137e+01  6.7428903985483345e+01  4.4125935264987208e+02  4.7744978710871396e+02  4.7334611044520818e+02  4.7421207468476490e+02  4.7878541152016317e+02  1.4670300332317228e+02  1.4376520971836936e+02  1.4669049593170496e+02  1.4961238086471261e+02  7.0303942105457040e+01  6.7445211669477843e+01  7.0290198922396399e+01  2.0506807818115906e+01  2.3858733907808801e+01  2.0148612991445457e+01  7.3165583291683930e+01  4.4449520386291397e+02  4.4127379770453751e+02  4.4448312446333210e+02  1.7177462928210113e+02  1.7724666896284910e+02  1.7580553990973377e+02  1.7321427329184397e+02  2.6880902176193473e+02  2.7410717126448793e+02  2.7265676871399836e+02  2.7025951209882822e+02  3.5578928354923710e+02  3.5956566113293019e+02  3.6434414572126946e+02  3.6390220491664252e+02  5.2199128414283985e+02  5.1566778335543836e+02  5.2016014379277124e+02  5.1832978525452017e+02  5.1749822093446232e+02  5.2199274618178947e+02  5.1567906983367709e+02  5.2016223607925781e+02  5.1751142533503071e+02  5.1106001669145132e+02  5.1104284042024972e+02  1.1963149915493463e+02  1.1586730092549510e+02  1.1815049375307999e+02  4.1481028950825277e+02  4.1068116237638145e+02  4.1318837307592980e+02  4.4767551129904609e+02  3.1182376355248476e+02  3.1797386489058636e+02  4.4768754687360661e+02  3.1487904712768204e+02  3.1181175563391861e+02  3.1489463171241857e+02  3.1795929555153020e+02  2.1643382113684225e+02  2.2065212686091638e+02  2.1958446107287023e+02  2.1750086069952076e+02  2.5632999530761111e+02  2.5187701441683203e+02  2.5675340378870578e+02  1.3374629480507747e+02  1.3335969419877100e+02  1.3802166740805359e+02  1.5959597736019572e+02  1.5528505932215032e+02  1.6001527191468597e+02  2.2961017531349862e+02  2.2520021936487129e+02  2.3003798591939142e+02  3.2814988262497288e+01  2.8701307478735679e+01  3.3215515082902414e+01  5.7690011592222525e+01  5.7313987168859306e+01  6.1850547058419671e+01  8.2833795855131569e+01  7.8643405819012074e+01  8.3242915285876506e+01  1.0817033029198954e+02  1.0778728145819372e+02  1.1240714924749314e+02  4.0224637010352512e+02  4.0182403176067118e+02  4.0689375448867457e+02  4.3029402604893255e+02  4.2986873107750699e+02  4.3498402024962388e+02  3.7450401773596053e+02  3.6989187759768885e+02  3.7494317318699478e+02  1.7689476605748561e+02  1.7286578298524364e+02  1.7395097838152145e+02  2.7384794281173379e+02  2.7000014009058305e+02  2.7118691452938356e+02  2.4201669562980365e+02  2.3914701653107275e+02  2.4236677522580703e+02  2.3879750580087702e+02  2.4166713924528557e+02  3.8806749440101868e+02  3.8473637675126923e+02  3.8838562880411939e+02  3.8441277740257425e+02  3.8775742147142216e+02  3.8870612919322406e+02  3.9203506542614878e+02  3.9235738811872176e+02  3.8902794276613292e+02  2.4717745822428682e+02  2.4374171226507067e+02  2.4580256533463819e+02  1.7777565076582630e+02  2.7539428556118690e+02  1.7277871022142907e+01  1.8691409851159969e+02  2.8442047232730715e+02  4.7645208707763157e+02  3.4554240341791945e+02  1.7545889742192841e+02  2.7273776545855907e+02  2.1183102177468524e+02  2.1287265589784664e+02  2.1539493028572488e+02  2.9484573663198518e+02  3.0009782218515585e+02  2.9523895936186932e+02  4.6542427815768076e+02  4.5990102013075477e+02  4.6501902161896896e+02  3.3493619436005918e+02  3.2967061112468468e+02  3.3458259374803191e+02  1.9712701917831808e+02  2.0216633050846696e+02  1.9745583420379370e+02  9.5522861338563231e+01  9.8868992832326114e+01  9.5543196171758211e+01  9.8848830120308662e+01  9.5502258670616612e+01  9.2196228100127840e+01  9.2175445336296946e+01  4.5268273403209903e+01  4.8554168490486795e+01  4.5286661996043108e+01  4.8535581868727803e+01  4.5249634711232090e+01  4.2000867790386678e+01  4.1982498739792824e+01  5.1370563864890755e+02  2.0326124087381035e+02  2.0289932386841920e+02  2.0763864703730422e+02  4.5862820060943426e+02  4.5390348230936945e+02  4.5903769447774948e+02  3.2854302682345093e+02  3.2399293145295201e+02  3.2892753017967067e+02  3.0127535495218882e+02  3.0090246569015142e+02  3.0578981860034713e+02  2.4777246696663414e+02  2.4506848553224040e+02  2.4471902319534794e+02  3.9389835371408475e+02  3.9114215937588625e+02  3.9082441569208294e+02  3.8287798886890914e+02  3.8563094026476028e+02  3.8595177973791021e+02  1.2162935693712264e+02  1.1736226962489494e+02  1.1836112051836858e+02  1.2063225937997289e+02  4.1699629979837391e+02  4.1231852773227564e+02  4.1341116535604004e+02  4.1590504717449130e+02  0.0000000000000000e+00  0.0000000000000000e+00  3.1893203365023632e+00  5.3536412537879596e+02  5.3536412537879596e+02  5.3169238508311673e+02  5.3536412537879596e+02  0.0000000000000000e+00  1.8756243578455033e+02  2.8507162722213576e+02  4.7593600283726778e+02  3.4504120668209231e+02  5.2497657924521036e+02  5.2500594082681096e+02  5.2497773253894684e+02  5.2500671244051546e+02  2.5009323721315177e+01  2.1174656686705614e+01  2.4849795327113046e+01  2.4701614362350682e+01  2.1340465251921259e+01  1.7661866836107510e+01  1.9319405013849578e+02  1.9325812827686960e+02  2.9083909021367077e+02  2.9090280748531615e+02  3.3907437278747710e+02  3.3898391698276316e+02  4.6981511687927906e+02  4.6894852035112274e+02  1.6990093926669437e+02  1.6881417164180044e+02  2.6696787039394849e+02  2.6578256828552958e+02  1.6374928728647919e+01  1.7037127247918846e+01  2.0529204381814449e+01  8.9512297373190766e+00  8.9797169655935782e+00  1.2367359689641377e+02  1.2467041618863416e+02  4.1924277959231165e+02  4.2033401485154002e+02  1.1179430493612214e+01  8.7152340053434294e+00  8.7785223149730509e+00  1.2241579904893824e+02  1.2646247321533770e+02  1.2522433928644061e+02  4.1786584704866743e+02  4.2230326135697732e+02  4.2094461369749087e+02  1.9524538498872414e+02  1.9231550257887389e+02  1.9165740998680999e+02  2.9312524483257801e+02  2.9004116044721474e+02  2.8936839220923213e+02  3.3672695670581521e+02  3.3987880935053346e+02  3.4053718622828592e+02  4.6753978701826185e+02  4.7000696687581109e+02  4.7135819384007760e+02  1.7109953974379880e+02  1.6705517584114705e+02  1.6823511199150653e+02  2.6823680964670586e+02  2.6402418322416747e+02  2.6528438052661170e+02  1.6019251503267974e+01  1.1921063122267812e+01  1.2260030529514278e+01  4.2099255236259512e+02  4.1612617111029164e+02  4.1412765126521589e+02  4.1126303451397382e+02  4.1899487900108318e+02  7.0331424953882234e+01  7.2595120748606860e+01  7.4886293440515828e+01  6.8041974017559554e+01  6.5782628047063440e+01  1.5093598201037955e+02  1.4649217030474824e+02  1.4437687296173678e+02  1.4205498558056144e+02  1.4881967090373678e+02  9.1382540883986664e+01  9.5544972966963854e+01  9.7627727035633939e+01  9.9715940661106089e+01  9.3462506249946998e+01  4.1197017675503943e+01  4.5286952995517957e+01  4.7333436348591945e+01  4.9384443910588651e+01  4.3241549202365022e+01  1.2527447526280930e+02  1.1901658432519075e+02  1.2345262150895707e+02  1.2083946936124528e+02  1.1640750311757098e+02  1.6724976979196123e+02  1.6951397985186739e+02  1.7094624701875992e+02  2.6439761768613909e+02  2.6660403748531019e+02  2.6805005497484717e+02  3.6627541671783365e+02  3.6346508912144492e+02  3.6237623948110962e+02  2.1116134213452028e+02  2.1379789914351934e+02  2.1486240783448574e+02  2.3816030718093049e+02  2.4026468345139347e+02  2.4163997809637360e+02  2.1780587736895760e+02  2.1884221303188286e+02  2.2125025359287835e+02  3.1013358841233020e+02  3.1730443050538759e+02  3.1250559862864634e+02  3.1493088868916794e+02  3.1973251264338717e+02  4.4945407705926226e+02  4.4442020053248143e+02  4.4194261866765555e+02  4.3939441181352311e+02  4.4697519730312615e+02  1.5854575152154775e+01  1.9086850466113614e+01  1.6314306427409448e+02  1.6433998388744061e+02  2.3319623486891041e+02  2.3719703846436641e+02  2.3446131704923508e+02  2.3845451296678567e+02  8.6250074117961901e+01  9.0050397191691872e+01  8.7446919886465537e+01  9.1235710185649907e+01  3.7822475429442602e+02  3.8243457117285044e+02  3.7955546012216064e+02  3.8375809340107662e+02  1.0479950222175735e+02  1.0095104690287428e+02  1.0355133082192906e+02  9.9719031384882413e+01  4.2655900198759781e+02  4.2518230350971834e+02  3.9854308742303618e+02  3.9432370796682460e+02  3.9717795245656924e+02  3.9297879837773354e+02  5.4379988972950514e+01  5.0600574259953390e+01  5.3154352783928658e+01  4.9391765163949636e+01  3.6165122211993307e+01  3.9897165675806065e+01  3.7342000424608344e+01  4.1061599020928035e+01  1.3034374654328084e+02  1.2908703299020155e+02  2.5995784508033074e+02  2.6120500346016877e+02  2.9637886409480780e+02  2.9356708250415949e+02  2.9230156615839184e+02  2.9767909314685875e+02  3.3347340207714916e+02  3.3632230335499912e+02  3.3768981969426409e+02  3.3211666977971885e+02  4.6377390764681428e+02  4.6677272818920102e+02  4.6809715959858181e+02  4.6243388587315172e