<?xml version="1.0"?>
<VTKFile type="UnstructuredGrid"  version="0.1"  >
<UnstructuredGrid>
<Piece  NumberOfPoints="2690" NumberOfCells="4864">
<Points>
<DataArray  type="Float64"  NumberOfComponents="3"  format="ascii">-5.103789331491919 22.02265544813654 0  -5.688564019653313 21.28535023788851 0  -5.101774544322843 21.52450662886406 0  -5.099307970066564 21.02273758914799 0  -5.690647930832377 21.78577773632819 0  -6.277412798652087 21.54524751092085 0  -9 21.99999999996945 0  -8.412032456208186 21.26723453207838 0  -9 21.49999999997139 0  -9 20.99999999997333 0  -8.412401542101078 21.76720841418316 0  -7.824458261329045 21.53435641728854 0  -9 32.9999999999446 0  -8.420075406942461 32.2671596525966 0  -9 32.49999999994358 0  -9 31.99999999994255 0  -8.420443599554783 32.76716716419406 0  -7.840539503039903 32.53427908406442 0  -5.15711925495357 33.02446124572958 0  -5.653683038567175 32.32057135853791 0  -5.155030858034992 32.52772703087845 0  -5.152350765774895 32.02366933706205 0  -5.655850334607473 32.82120534996631 0  -6.154481697836462 32.61442312635056 0  -5.26123945691034 54.02326850171077 0  -5.828019492152177 54.75966924592414 0  -5.825955632062152 54.26064917179686 0  -6.390275626122037 54.49462713676635 0  -5.263730805424345 54.5250392886021 0  -5.265800472535272 55.02345913832486 0  -9 54.99999999998974 0  -8.504704396163904 54.300100720397 0  -9 54.49999999998872 0  -9 53.99999999998769 0  -8.505035255600744 54.80000045811065 0  -8.009809822569418 54.60003394689625 0  -9 39.99999999995897 0  -8.426332361975764 40.74208052806667 0  -8.425963870697794 40.24208636817264 0  -7.852280683843434 40.48410288171763 0  -9 40.49999999996 0  -9 40.99999999996102 0  -5.196273503021508 41.02157398085805 0  -5.741680781543711 40.29108308837681 0  -5.19419633866729 40.52512275247176 0  -5.191742539604151 40.0243251670836 0  -5.743764617607405 40.79071770174537 0  -6.291234877921133 40.55587773966127 0  -9 55.99999999999179 0  -8.4613324902776 56.74756031581824 0  -8.461006593210243 56.24749637925976 0  -7.922354165374856 56.49499322297591 0  -9 56.49999999999282 0  -9 56.99999999999384 0  -5.271260019632137 56.0221820513293 0  -5.813351178274703 56.76560778698958 0  -5.811334423427503 56.26550910185311 0  -6.350934375193516 56.50602190236344 0  -5.273905595424426 56.52578957729202 0  -5.275971469324198 57.0235478757477 0  -7.51812821027976 43.01283936627546 0  -6.714356871214703 43.12823487397072 0  -7.292663287735127 43.35235787943404 0  -7.067384445420688 43.69189221727061 0  -6.939624247683976 42.7885737592508 0  -6.36080164939102 42.5643203096782 0  -6.705916296429855 49.02429216708543 0  -7.503689438443069 48.90752929907224 0  -6.929432851599013 48.68460511282576 0  -7.153178394458353 48.34484176845397 0  -7.279968258674153 49.24717045184399 0  -7.853662827880882 49.47022142912032 0  -6.69699837561743 46.02280910676562 0  -7.497875002764339 45.90656355336705 0  -6.921436156790905 45.68284502492661 0  -7.146082070044467 45.342998994552 0  -7.273241237511188 46.24639027868424 0  -7.849158387500932 46.46988695032533 0  -6.582085483989848 7.023573167659915 0  -7.42293812305968 6.907174097295911 0  -6.81777688389952 6.683872811970423 0  -7.053677840547414 6.34417729266423 0  -7.187049701399976 7.246864508286453 0  -7.791690401789177 7.470140733424092 0  -7.493301076455288 30.01269602237454 0  -6.676047774710324 30.12791005403101 0  -7.264062359883594 30.35186205559081 0  -7.035018183067702 30.69094687479016 0  -6.905091544608911 29.78866709686821 0  -6.316549663071754 29.56476871738668 0  -6.573771254386989 4.022432569478161 0  -7.417947498351917 4.122808504323054 0  -6.81196767801855 4.357772355124802 0  -7.050004914197468 4.693039587728895 0  -7.179921216515286 3.787497281102504 0  -7.786349841990474 3.552706851241111 0  -6.590654744781532 10.02376634712087 0  -7.42891809310914 10.12370076961568 0  -6.827236595550513 10.35880994088742 0  -7.063648024294656 10.69385540063794 0  -7.192488532758851 9.788680245268562 0  -7.794660436147683 9.553563946959354 0  -6.599248609764809 13.02398869278628 0  -7.434114101646982 12.90750838468297 0  -6.833245493133134 12.68429620774846 0  -7.067450591692118 12.34461047007156 0  -7.199911439507958 13.24722737521868 0  -7.800262584866446 13.47040133580025 0  -6.607911784350534 16.02435456301118 0  -7.439783054433668 15.90761788313014 0  -6.841057571478098 15.68468997982601 0  -7.074419330998625 15.34496543189672 0  -7.206441924974181 16.24725455341813 0  -7.804632202122631 16.47029129682698 0  -6.616928822409863 19.02181903551958 0  -7.446086196621696 19.12217233618076 0  -6.851050716955796 19.35646381329888 0  -7.084955477155487 19.69124717464965 0  -7.212160189158695 18.78731617916586 0  -7.807756391976682 18.55275131000327 0  -6.640583639897461 27.02100666363632 0  -7.461517447697748 27.1216649182092 0  -6.872338464881773 27.35611406493269 0  -7.103910494755643 27.69125510617429 0  -7.229945978854917 26.7863929544749 0  -7.819631870347726 26.55197101602174 0  -8.285530014921695 19.10032780718045 0  -8.046727734553993 18.82650355961348 0  -8.403671952250452 18.2764393995895 0  -8.642514347255826 18.5502641171686 0  -9 17.99999999998495 0  -8.292629874144382 27.10007217396632 0  -8.056210933935368 26.82602458682647 0  -8.409618277598454 26.27596419700475 0  -8.646074982821851 26.55003166285172 0  -9 25.99999999995395 0  -8.282660565336817 15.91332543435479 0  -8.043564036309554 16.19182129369307 0  -8.402515960482024 16.73509477598308 0  -8.641572371138867 16.45662570389679 0  -9 16.99999999998883 0  -5.84811211156464 30.12165291756125 0  -6.082244394556537 29.84318799315564 0  -5.727493839282044 29.29910585444401 0  -5.493366048159984 29.57864333674062 0  -5.137344435690069 29.02267321798413 0  -8.280049346394046 12.91331450199274 0  -8.040075714797215 13.19185318608478 0  -8.400323768108453 13.73521058398957 0  -8.640260985163865 13.45666826739504 0  -9 13.99999999999401 0  -8.277636672578955 10.10104439717011 0  -8.03622616379549 9.827305044347487 0  -8.397135386557105 9.276778375507616 0  -8.638585712964678 9.550517738796623 0  -9 8.99999999999857 0  -8.272610083145748 4.100621906302995 0  -8.029549320045572 3.826683120956967 0  -8.393019680902524 3.27632061618978 0  -8.636101531503638 3.550264057902888 0  -9 2.999999999998668 0  -8.274914507350005 6.913147252972847 0  -8.033222546981493 7.191639518183084 0  -8.396036822075317 7.735076972888653 0  -8.637691219688287 7.4565874356231 0  -9 7.999999999999485 0  -8.309367829981909 45.91286574480155 0  -8.079182014113721 46.19134941360393 0  -8.424776199877238 46.73498580134943 0  -8.654923138749876 46.45650459399919 0  -9 46.99999999997333 0  -8.312044230774976 48.91327191900378 0  -8.082767719404826 49.19175997926972 0  -8.42703850942193 49.73505712728517 0  -8.656273517484546 49.45660233883866 0  -9 49.99999999997949 0  -5.900123429197811 43.12193353495807 0  -6.130374049319017 42.84312538190959 0  -5.781465939258066 42.29834363921756 0  -5.551232065245852 42.57835302259111 0  -5.200981925556005 42.02172917786495 0  -5.819091036443933 23.94434128145264 0  -6.061756361051262 24.20961790190175 0  -5.711360112905668 24.75409932768602 0  -6.30424628091114 24.47497255663771 0  -5.468855158856098 24.4898961991582 0  -5.118378749124016 25.02246222804922 0  -8.319445361435198 52.09002903194476 0  -8.085958958873645 51.82460978847589 0  -8.425934903850441 51.27969213431919 0  -7.852301415026735 51.55925542285611 0  -8.659468904055004 51.54511010611382 0  -9 50.99999999998153 0  -5.875487537577557 38.11139385442242 0  -6.111889428621967 37.84105953142489 0  -5.762990980456561 37.30164199835135 0  -6.348460081022615 37.57078875363828 0  -5.526592025022016 37.573281108617 0  -5.176328648417832 37.02071375356883 0  -5.862789792245769 34.94412509826346 0  -6.10215728467309 35.20923778257376 0  -5.756638815277394 35.75343108808573 0  -6.341349910292076 35.4744227391594 0  -5.517416973698474 35.48955846285944 0  -5.171854787072483 36.02136759291879 0  -7.951574824075746 50.51073045159593 0  -7.90189960231743 51.03502216084166 0  -8.475963886668604 50.75530497901125 0  -6.242271650724728 36.52236187345977 0  -6.295390472834231 37.04643529965766 0  -5.70948115466414 36.77553230784714 0  -6.291774883951105 35.99823513830837 0  -5.707359825755128 36.27525640447146 0  -6.067337428516255 25.28457054622724 0  -6.18574590475481 24.87981667173728 0  -5.593117978318888 25.15766734127194 0  -8.057203026597806 25.75396371594208 0  -7.938358791716424 26.1529664815348 0  -8.528674066139846 25.87698574450711 0  -7.026817497623778 34.39244405650943 0  -6.683844012316337 34.93356990619419 0  -6.930939519793243 35.25588199757957 0  -7.273944905827543 34.71494821856991 0  -7.52086565510249 35.03741133666091 0  -7.180942416375034 52.64059689893892 0  -7.516367604097871 52.1000503532618 0  -7.274762938773355 51.77809060542918 0  -6.939361687118972 52.31871005475217 0  -6.697562888170516 51.99688723839215 0  -7.037531585863317 38.6404895319423 0  -6.693236496982729 38.10577151426343 0  -6.937612076874048 37.77901793105262 0  -7.281885956342034 38.31394130824107 0  -7.526444293553594 37.98734115127968 0  -6.99935780839075 23.39256496532928 0  -6.651567197508039 23.9338538727151 0  -6.902073458001376 24.25627068954399 0  -7.249900172998375 23.71514334765369 0  -7.500238717684457 24.03765801153737 0  -7.906759859377027 17.5106286885481 0  -7.85722111014393 18.03172431174627 0  -8.453551683129023 17.75525292069847 0  -7.855726965447915 16.99047238080087 0  -8.453208516013595 17.25534858932772 0  -7.894852432840292 8.510868525554601 0  -7.84472660119384 9.032218460852459 0  -8.447587096603407 8.755436578456319 0  -7.934573955706541 2.425041268448737 0  -7.860398357939887 2.988845598166346 0  -8.467437600322398 2.712552135921629 0  -7.843303792517724 7.99051056874123 0  -8.447260756672552 8.255426641565968 0  -7.902652103939207 49.99048943115239 0  -8.475609279036497 50.25540163713344 0  -6.174967328781195 41.61504795530963 0  -6.267945510925736 42.08978756798711 0
[...]
<PointData  Scalars="f_29"> 
<DataArray  type="Float64"  Name="f_29"  format="ascii">2.2594025969600438e+02  2.1808214550699208e+02  2.2059668390126203e+02  2.1526494893073840e+02  2.2339399255392237e+02  2.2085315652320207e+02  2.2582669065772927e+02  2.1797357452403403e+02  2.2048157581814161e+02  2.1514429549483347e+02  2.2328726775711965e+02  2.2078814945464114e+02  3.4417199689223622e+02  3.3608099637780253e+02  3.3866451652913435e+02  3.3316674322803163e+02  3.4155607980594675e+02  3.3897859495447011e+02  3.4425558307251714e+02  3.3655254288125496e+02  3.3877315582241602e+02  3.3331002104591175e+02  3.4201713782491305e+02  3.3978008882281080e+02  5.8005017760837745e+02  5.8865244207950457e+02  5.8285146110630444e+02  5.8559185269421187e+02  5.8587381420681197e+02  5.9172498161137980e+02  5.9159963081319177e+02  5.8344259750324295e+02  5.8579104010518995e+02  5.7998327911925037e+02  5.8924376109132618e+02  5.8689952526963714e+02  4.2124784517512524e+02  4.2955769575761326e+02  4.2396525358306451e+02  4.2664325906545702e+02  4.2687439410406699e+02  4.3249525645272570e+02  4.3260476513401335e+02  4.2439839112621479e+02  4.2698967729256998e+02  4.2136818342921902e+02  4.3000077602079557e+02  4.2738865058865582e+02  6.0317784412622109e+02  6.1188042001552708e+02  6.0605619058341301e+02  6.0890578727903619e+02  6.0901083296273441e+02  6.1487414304380354e+02  6.0328167971196797e+02  6.1196037726170994e+02  6.0614018737255424e+02  6.0895723837842115e+02  6.0910856124094380e+02  6.1497463235728117e+02  4.5489244813689646e+02  4.5612496029801156e+02  4.5868203291208533e+02  4.6247681380537375e+02  4.5234087099782204e+02  4.4978889729788824e+02  5.2267437445427561e+02  5.2141347093165416e+02  5.1882654079896145e+02  5.1498242345097344e+02  5.2526572813219275e+02  5.2785366804720354e+02  4.8866797404791191e+02  4.8741599617133897e+02  4.8485624131405109e+02  4.8104583003984197e+02  4.9123313427012710e+02  4.9379570340143283e+02  7.0288810411346844e+01  6.9159752903532379e+01  6.6862045831128626e+01  6.3437833271049733e+01  7.2590865378044384e+01  7.4889698790563955e+01  3.1150364119576398e+02  3.1269558767292881e+02  3.1516785845459162e+02  3.1883787349907692e+02  3.0903882735835197e+02  3.0657459903492821e+02  4.0005963696048163e+01  4.1069402759493045e+01  4.3391659417195463e+01  4.6778799801429685e+01  3.7688258728448353e+01  3.5370679555311860e+01  1.0085311075585535e+02  1.0192982611686651e+02  1.0429844136075045e+02  1.0774474017642393e+02  9.8488087212049621e+01  9.6125428532351563e+01  1.3166851634727274e+02  1.3051824085867702e+02  1.2818160252929860e+02  1.2469721446225346e+02  1.3400885294062161e+02  1.3634655231411290e+02  1.6274546223266071e+02  1.6159012056818642e+02  1.5922778212684011e+02  1.5571373835190866e+02  1.6511209958122564e+02  1.6747526011650612e+02  1.9412933511082991e+02  1.9524983068681775e+02  1.9767749123251184e+02  2.0122959451007077e+02  1.9170917638402958e+02  1.8928693295961688e+02  2.7916451905324180e+02  2.8030882575898761e+02  2.8278628203975609e+02  2.8641072575828571e+02  2.7669382386825333e+02  2.7422020444618414e+02  1.9507125370752416e+02  1.9217983766705476e+02  1.8643405367060410e+02  1.8931586965654907e+02  1.8359870160903810e+02  2.8012951264848982e+02  2.7717488839623752e+02  2.7130282293135366e+02  2.7424824131207617e+02  2.6839723068459273e+02  1.6170295419483514e+02  1.6458830413259636e+02  1.7026600686924371e+02  1.6737545027425676e+02  1.7303037747683746e+02  3.1254267800949719e+02  3.0956065459326442e+02  3.0367599004600305e+02  3.0662193091851162e+02  3.0079509942454939e+02  1.3062607252917056e+02  1.3348546748295854e+02  1.3910786373241925e+02  1.3624985445594996e+02  1.4185720658001483e+02  1.0174968087400855e+02  9.8938203680527565e+01  9.3345607752452011e+01  9.6148335046248590e+01  9.0584791385236656e+01  4.0897140376835623e+01  3.8134101007662743e+01  3.2638645331376004e+01  3.5399157471420793e+01  2.9935564523479922e+01  6.9265714405780301e+01  7.2076942284500163e+01  7.7605148815739682e+01  7.4789401947478694e+01  8.0294130740464425e+01  4.8754062414030813e+02  4.9066731174201237e+02  4.9682215758791483e+02  4.9369642765769737e+02  4.9983635014951813e+02  5.2154070555877570e+02  5.2469636776562334e+02  5.3090973765014826e+02  5.2774891997854513e+02  5.3394060725784072e+02  4.5596920597208492e+02  4.5288084163929659e+02  4.4678727350024445e+02  4.4983967214542014e+02  4.4380850848019975e+02  2.4619840215848282e+02  2.4905546464207887e+02  2.5485403675151909e+02  2.5191084816465298e+02  2.5196785939261036e+02  2.5778931704543095e+02  5.5791376465914914e+02  5.5484819634594544e+02  5.4862550473666943e+02  5.5178199523521198e+02  5.5168130453120125e+02  5.4548601375641010e+02  4.0009014572770934e+02  3.9713367427841109e+02  3.9118234495475258e+02  3.9417525238288840e+02  3.9409696408970967e+02  3.8821389456768924e+02  3.6516276659078142e+02  3.6810943304017900e+02  3.7408394603551881e+02  3.7105496746085134e+02  3.7110337776732911e+02  3.7709534251523951e+02  5.3975806418466084e+02  5.4577003582466023e+02  5.4260452142870133e+02  3.8263243604871701e+02  3.8840242898136114e+02  3.8541454620740467e+02  3.7683696760587151e+02  3.7987989140110869e+02  2.6056863219236595e+02  2.5623601715565644e+02  2.5920097365557831e+02  2.6568615267962775e+02  2.6995287317523452e+02  2.6702805008078730e+02  3.5923308037387426e+02  3.6513628806334179e+02  3.6869782685060301e+02  3.6278691761647491e+02  3.6634274169378915e+02  5.6416880478096937e+02  5.5796989690024191e+02  5.5424826179652746e+02  5.6044080745967028e+02  5.5671647244561245e+02  4.0606269388655409e+02  4.0010888023342733e+02  3.9651441912580532e+02  4.0246011476402214e+02  3.9885954508372146e+02  2.4044060950759314e+02  2.4616765514084781e+02  2.4961994590506487e+02  2.4388556661430559e+02  2.4733196988382915e+02  1.7835646054550801e+02  1.8382138480076546e+02  1.8095931310563839e+02  1.7291005159323140e+02  1.7571033629021309e+02  8.5485116043176532e+01  9.0805532636911835e+01  8.8016316721163221e+01  2.4075949824987912e+01  2.9723496132053295e+01  2.6990518021574381e+01  8.0181902317679160e+01  8.2906105601667761e+01  5.3380001336153498e+02  5.3686551382698360e+02  4.3920666537700617e+02  4.4449512466854065e+02  4.4149989015030150e+02  2.5444470268016633e+02  2.5317961692592502e+02  2.5088546577004499e+02  5.4753074642826653e+02  5.4965613524724813e+02  5.5212227879294517e+02  3.9006594671159417e+02  3.9212168385757383e+02  3.9445922288691474e+02  3.7514769126547372e+02  3.7310323663349652e+02  3.7074155688170731e+02  2.9792380309285812e+02  3.0224705251155927e+02  2.9935266855437715e+02  4.6289828856189115e+02  4.5633047885892233e+02  4.6268947263913998e+02  5.1455213799946716e+02  5.2119677318391098e+02  5.1476825883386971e+02  4.8061334160638074e+02  4.8719974697982207e+02  4.8083058147108221e+02  6.3047643671421383e+01  6.8963227086924249e+01  6.3244305700947791e+01  4.7106669093973920e+01  4.1234588962872628e+01  4.6944454636963613e+01  3.1932916028225026e+02  3.1293765652266893e+02  3.1908610986324334e+02  1.0807384699734074e+02  1.0209586089540974e+02  1.0791089078814358e+02  1.2429869219137210e+02  1.3031783659842938e+02  1.2449945992376726e+02  1.5531724911834101e+02  1.6139047035403792e+02  1.5551650972935101e+02  2.0166103617132509e+02  1.9546766267877661e+02  2.0144846718995473e+02  2.8676759952124166e+02  2.8048826248745553e+02  2.8659103767092347e+02  2.7074469797537432e+02  2.7248219909105808e+02  2.7495302460499590e+02  1.8546139597932515e+02  1.8737417745343095e+02  1.8979349834141482e+02  1.7125224403173215e+02  1.6936483164972768e+02  1.6699709206306804e+02  3.0292433022275219e+02  3.0475119805195027e+02  3.0721118242303021e+02  1.3997572470497727e+02  1.3816166615168319e+02  1.3582030186067175e+02  9.2482223798770661e+01  9.4304182290152738e+01  9.6665262469594367e+01  3.3107320401819258e+01  3.4239641080486052e+01  3.6555309233434244e+01  7.8570748065973987e+01  7.6731247847906857e+01  7.4427552707749356e+01  4.4599840310611461e+02  4.4789463393685668e+02  4.5044326275347368e+02  5.3198263915953294e+02  5.2991926780424967e+02  5.2732658319859161e+02  4.9776064494235186e+02  4.9577865279477578e+02  4.9321206404139156e+02  4.3329850593208272e+02  4.3590481141923254e+02  5.9748056312452093e+02  5.9153793224136916e+02  5.9457434632243087e+02  5.9742410845746224e+02  5.9216099473205134e+02  5.9450887586443548e+02  6.0316399916318460e+02  6.0030048539388417e+02  6.0321936147660517e+02  6.0038158455047301e+02  1.4087922562556527e+01  2.0587711254736103e+01  1.5594093712972050e+01  1.7097461286881344e+01  1.9077543261369314e+01  6.4094362767702705e+02  6.4097981631644370e+02  6.4545706211977824e+02  6.4101377715066451e+02  6.4542400202547867e+02  6.4990765138040433e+02  6.4094490155464939e+02  6.4098253958745840e+02  6.4545887174793086e+02  6.4542511151578515e+02  6.4990765138040433e+02  6.2282095809022474e+02  6.1585995756261116e+02  6.1883706733280064e+02  6.2285916178332070e+02  6.1591001543771813e+02  6.1890478227202993e+02  7.7013962121032620e+00  7.7335613060456456e+00  3.8795725530419536e+00  7.7628706701022958e+00  3.8500048682058305e+00  0.0000000000000000e+00  2.2944408634195986e+02  2.2551787822234220e+02  2.3024642270582353e+02  2.2471555573723199e+02  2.2864677124921548e+02  3.4789292413169915e+02  3.4384526609349371e+02  3.4871167346510310e+02  3.4302668991684135e+02  3.4707865993444267e+02  4.1755098392817104e+02  4.2169539786299526e+02  4.1674967018040013e+02  4.2249365366957767e+02  4.1834550892738224e+02  5.7699069591832915e+02  5.8129425126671413e+02  5.7964211311573399e+02  5.7535052230803421e+02  5.7370223709120853e+02  7.6111446636440885e+00  7.6883629654373129e+00  3.8803795341840353e+00  3.8030896928404965e+00  0.0000000000000000e+00  2.1233902807386579e+02  2.1659836126820619e+02  2.1381898276100168e+02  3.3019826079040763e+02  3.3458770381785109e+02  3.3169096361239190e+02  4.3548238511337416e+02  4.3106168039604825e+02  4.3398085446929036e+02  5.9152583891130485e+02  5.9747607725505191e+02  5.9746282483279970e+02  6.0318198570729442e+02  5.9744652429425253e+02  6.0320704639967835e+02  5.9217934206911025e+02  4.3275850628454691e+02  4.3866727532350978e+02  4.3812808185080223e+02  2.1864343441295409e+02  2.1971517462975069e+02  2.2444595463217300e+02  2.1974769230490537e+02  2.2554784913243012e+02  3.3602282551517754e+02  3.3750009720546672e+02  3.4236684732473464e+02  3.3790208092855659e+02  3.4424308003903519e+02  5.8365700421782753e+02  5.8462655429872336e+02  5.7867776852379438e+02  4.2896963276879603e+02  4.2817988375657507e+02  4.3354954181748678e+02  4.2206303362381328e+02  4.2285650898261889e+02  4.2780836858321618e+02  6.0789496045029114e+02  6.0842743617718418e+02  6.0267748815459549e+02  6.0840183183707859e+02  6.1348751190398980e+02  6.1298025751881119e+02  6.1806547202113813e+02  5.8527900362391631e+02  5.9055758504013409e+02  6.1351135228043609e+02  2.3009367312685316e+02  2.2547739629349550e+02  2.3017043606085366e+02  3.4855749773965795e+02  3.4417041446374924e+02  3.4863519592012142e+02  4.1696765632362133e+02  4.2217793427969582e+02  4.1686478363095574e+02  1.8190993263253102e+02  1.7480126018173186e+02  8.8984427899229999e+01  2.8591794224580138e+01  8.2025154573247335e+01  5.3586747787402237e+02  5.7973259203253974e+02  5.7475923663385242e+02  5.7580917810754886e+02  5.8135154409043605e+02  1.7838910990787372e+02  1.7481931785810323e+02  1.7837433614454119e+02  1.8192428882253310e+02  8.5520799302334169e+01  8.2044498492166653e+01  8.5504523851333559e+01  2.4951162462215152e+01  2.9029102892764410e+01  2.4515687611045326e+01  8.9000538981924137e+01  5.3978957562845835e+02  5.3588453249428585e+02  5.3977535518989532e+02  2.0884935249178102e+02  2.1549587171825229e+02  2.1374584902189329e+02  2.1059759312006204e+02  3.2668056483301291e+02  3.3311180483768425e+02  3.3135082629834233e+02  3.2844162274998058e+02  4.3222299831542705e+02  4.3680373230367348e+02  4.4259910356458539e+02  4.4206337560435946e+02  6.3370619583762652e+02  6.2604440398477163e+02  6.3148744041543580e+02  6.2926961880150589e+02  6.2826240586267932e+02  6.3370783191521627e+02  6.2605767836831444e+02  6.3148986420348922e+02  6.2827788423022128e+02  6.2046065348355899e+02  6.2044038772281669e+02  1.4549078684108159e+02  1.4091535437489839e+02  1.4369125614235182e+02  5.0380201497362799e+02  4.9879519873716907e+02  5.0183593638080998e+02  5.4364517176344509e+02  3.7888357150159510e+02  3.8634600159355261e+02  5.4365930819518701e+02  3.8259124978038784e+02  3.7886942526811589e+02  3.8260967491277557e+02  3.8632872612137368e+02  2.6309253303899396e+02  2.6821560666819579e+02  2.6691858050842342e+02  2.6438881468188077e+02  3.1153242115396989e+02  3.0612685525944954e+02  3.1204626810073103e+02  1.6264651993336503e+02  1.6217622665363751e+02  1.6784210201585810e+02  1.9405627868532844e+02  1.8881868910638516e+02  1.9456526677131964e+02  2.7909460734259324e+02  2.7373976689772581e+02  2.7961366854487352e+02  3.9926790377031168e+01  3.4922315770114643e+01  4.0413594944428958e+01  7.0183345899635128e+01  6.9725569212523709e+01  7.5243175486011168e+01  1.0075855352300430e+02  9.5663443841585391e+01  1.0125551312315417e+02  1.3156079605552441e+02  1.3109469137288363e+02  1.3671087119770885e+02  4.8856852391302522e+02  4.8805595372814008e+02  4.9420391805639952e+02  5.2257600529830790e+02  5.2205995480337549e+02  5.2826170711088218e+02  4.5492206938135871e+02  4.4932838956103177e+02  4.5545451912339968e+02  2.1506960064841715e+02  2.1017535795457897e+02  2.1149422216409260e+02  3.3279616415133989e+02  3.2812582407128019e+02  3.2956589556164681e+02  2.9415681954322486e+02  2.9067252126327566e+02  2.9458128324591553e+02  2.9024872426938759e+02  2.9373298637859358e+02  4.7137115896751027e+02  4.6733168170024840e+02  4.7175768209029633e+02  4.6693864449288316e+02  4.7099418014475503e+02  4.7214700461941692e+02  4.7618388689155864e+02  4.7657539523683380e+02  4.7253790068504173e+02  3.0042122959548277e+02  2.9625004128201095e+02  2.9875250674309882e+02  2.1614010532967629e+02  3.3467262560372200e+02  2.1022739124728375e+01  2.2724142703703100e+02  3.4563038990033300e+02  5.7852189930157715e+02  4.1979418064290309e+02  2.1332651650523613e+02  3.3144790922867946e+02  2.5750245541532610e+02  2.5876789055208627e+02  2.6183035339347140e+02  3.5828127384966376e+02  3.6465505811764638e+02  3.5875862268002282e+02  5.6515864484301278e+02  5.5846424155307500e+02  5.6466711130646024e+02  4.0692603838273226e+02  4.0053797483927951e+02  4.0649721845635929e+02  2.3964477454403783e+02  2.4576538924558125e+02  2.4004427735706395e+02  1.1618430527225723e+02  1.2025197771584490e+02  1.1620836945751002e+02  1.2022811229335220e+02  1.1615991976566310e+02  1.1213970326204259e+02  1.1211511003292971e+02  5.5073847884878447e+01  5.9070317356197243e+01  5.5095642410861949e+01  5.9048285193479067e+01  5.5051758698041112e+01  5.1099274649531601e+01  5.1077507219924755e+01  6.2366661657882923e+02  2.4709503763259309e+02  2.4665534245284439e+02  2.5241123717456401e+02  5.5692267824340240e+02  5.5119593780860896e+02  5.5741860649979242e+02  3.9916975800513296e+02  3.9364949959289140e+02  3.9963613687610746e+02  3.6608385697871427e+02  3.6563121975802562e+02  3.7156196369464902e+02  3.0114487033187061e+02  2.9786173596815172e+02  2.9743801171799822e+02  4.7844225576206969e+02  4.7510013911794061e+02  4.7471412796610321e+02  4.6507920781313970e+02  4.6841742793157641e+02  4.6880713293448241e+02  1.4791795685897696e+02  1.4273206277423228e+02  1.4394555557592432e+02  1.4670655318127029e+02  5.0645156669308983e+02  5.0078022221338841e+02  5.0210456984514587e+02  5.0512887767698311e+02  0.0000000000000000e+00  0.0000000000000000e+00  3.8808081612203118e+00  6.4990765138040433e+02  6.4990765138040433e+02  6.4545935429469830e+02  6.4990765138040433e+02  0.0000000000000000e+00  2.2802614103005624e+02  3.4641814509826787e+02  5.7789883764366618e+02  4.1918383872636986e+02  6.3732308478684581e+02  6.3735853889792270e+02  6.3732455021227179e+02  6.3735949633186965e+02  3.0428221475241418e+01  2.5762397759100363e+01  3.0233673866932875e+01  3.0052923502177695e+01  2.5964565780183978e+01  2.1489355317301950e+01  2.3486739504633908e+02  2.3494558476478468e+02  3.5341845754982586e+02  3.5349615621297994e+02  4.1194598622541696e+02  4.1183659405647734e+02  5.7048025371990150e+02  5.6942959742185201e+02  2.0657420600034885e+02  2.0525350565686074e+02  3.2444500278259977e+02  3.2300672017008083e+02  1.9924109327109139e+01  2.0729126890704631e+01  2.4977678531436517e+01  1.0892104190066361e+01  1.0926545441867573e+01  1.5040353369670603e+02  1.5161456779824644e+02  5.0917623810195903e+02  5.1049886017273462e+02  1.3602906143926605e+01  1.0604750587722291e+01  1.0681650606231910e+01  1.4887552072308046e+02  1.5379367965233644e+02  1.5228953848401630e+02  5.0750742157284355e+02  5.1288746692700772e+02  5.1124088938268108e+02  2.3736037372721393e+02  2.3380124986359354e+02  2.3300242171269076e+02  3.5619428996205693e+02  3.5245100301910168e+02  3.5163497758271808e+02  4.0909950514067117e+02  4.1292275384322784e+02  4.1372189584586187e+02  5.6772138808858824e+02  5.7071177259508352e+02  5.7234909181447676e+02  2.0803093189714031e+02  2.0311768574877439e+02  2.0455172908882355e+02  3.2598494556510207e+02  3.2087164344542720e+02  3.2240068623997882e+02  1.9492212370119294e+01  1.4505771762166004e+01  1.4918507594342172e+01  5.1129627123300412e+02  5.0539567738037232e+02  5.0297287186189158e+02  4.9949896607311416e+02  5.0887445594390391e+02  8.5553333369044779e+01  8.8306451338316819e+01  9.1092103555738134e+01  8.2769726883883848e+01  8.0021742901969390e+01  1.8353187267564522e+02  1.7813205644254543e+02  1.7556211003937938e+02  1.7274013199856569e+02  1.8096070464621397e+02  1.1114907012328248e+02  1.1620966543512530e+02  1.1874217300248984e+02  1.2128034740387862e+02  1.1367830268820194e+02  5.0120353199452857e+01  5.5095233005818685e+01  5.7584832949120880e+01  6.0079044009875645e+01  5.2607664502917480e+01  1.5234762036120475e+02  1.4474172617928070e+02  1.5013362251947208e+02  1.4695692345155456e+02  1.4156986323786464e+02  2.0335199949638289e+02  2.0610281430524782e+02  2.0784220550864629e+02  3.2132671215441491e+02  3.2400451860812268e+02  3.2576017643614711e+02  4.4494271746642698e+02  4.4153354156635265e+02  4.4021327385849202e+02  2.5669048453923813e+02  2.5989191106337620e+02  2.6118513371697560e+02  2.8947331652489362e+02  2.9202868950649594e+02  2.9369781536559805e+02  2.6475765678437273e+02  2.6601677024435412e+02  2.6894066774904218e+02  3.7683404388054652e+02  3.8553461102520339e+02  3.7971178366315218e+02  3.8265503612599315e+02  3.8848113043470579e+02  5.4579982558384154e+02  5.3969777915424697e+02  5.3669486833133794e+02  5.3360534280043316e+02  5.4279536466687091e+02  1.9290896833879600e+01  2.3223262811198943e+01  1.9836465170185144e+02  1.9981935746456188e+02  2.8344789849128642e+02  2.8830590334791879e+02  2.8498450151729986e+02  2.8983321604509013e+02  1.0491107514341233e+02  1.0953200882241590e+02  1.0636694671402988e+02  1.1097382381194181e+02  4.5943451354752295e+02  4.6453951487762072e+02  4.6104855515654265e+02  4.6614455143211848e+02  1.2746207090200230e+02  1.2278418636137009e+02  1.2594546016031737e+02  1.2128709097437697e+02  5.1804674391879712e+02  5.1637828920423522e+02  4.8407673474818745e+02  4.7896040872449305e+02  4.8242191983237512e+02  4.7733007774918201e+02  6.6156604136558542e+01  6.1560331314858608e+01  6.4666603393525662e+01  6.0090661717823579e+01  4.4001132926250797e+01  4.8541344488928132e+01  4.5433390154867027e+01  4.9958465733398747e+01  1.5851032073094419e+02  1.5698367225740307e+02  3.1593627867362159e+02  3.1745035599509606e+02  3.6014210495270555e+02  3.5672893322064601e+02  3.5519263197254463e+02  3.6171980445322765e+02  4.0515155633174533e+02  4.0860702299736454e+02  4.1026560484481644e+02  4.0350549531131622e+02  5.6315906231720351e+02  5.6679342649124510e+02  5.6839908338947487e+02  5.6153440865225491e