<?xml version="1.0"?>
<VTKFile type="UnstructuredGrid"  version="0.1"  >
<UnstructuredGrid>
<Piece  NumberOfPoints="2690" NumberOfCells="4864">
<Points>
<DataArray  type="Float64"  NumberOfComponents="3"  format="ascii">-5.092522308123428 22.02020510901638 0  -5.679279309850646 21.28288266265751 0  -5.090716783725129 21.52185639411398 0  -5.088530950543712 21.02028555221529 0  -5.681127987496054 21.78326070998973 0  -6.269675638403797 21.54305888030965 0  -9 21.99999999996945 0  -8.41038616124769 21.26672237864758 0  -9 21.49999999997139 0  -9 20.99999999997333 0  -8.410713815141415 21.7666990028943 0  -7.821120979962579 21.5333443642675 0  -9 32.9999999999446 0  -8.417535557986367 32.26665585925623 0  -9 32.49999999994358 0  -9 31.99999999994255 0  -8.41786256099078 32.76666240829078 0  -7.835416119865694 32.53327586695724 0  -5.13993574107172 33.02182299950811 0  -5.63901938295664 32.31795694785146 0  -5.138060455157133 32.5247322524512 0  -5.135700026641185 32.02111496765749 0  -5.640939001014832 32.81852076219435 0  -6.14188002068346 32.61207794214994 0  -5.232298596388205 54.02076797283311 0  -5.803078793678472 54.75729442588317 0  -5.801249687908581 54.25816724737698 0  -6.36987130290709 54.49252235256368 0  -5.234488283100836 54.52233930248137 0  -5.23634310256788 55.02095706622679 0  -9 54.99999999998974 0  -8.500851183598916 54.29967214018423 0  -9 54.49999999998872 0  -9 53.99999999998769 0  -8.501143393608791 54.79958342912727 0  -8.002056130594523 54.59919592511732 0  -9 39.99999999995897 0  -8.423091725764642 40.74158654111088 0  -8.422764511244631 40.24159155321647 0  -7.845842196178321 40.48312129329564 0  -9 40.49999999996 0  -9 40.99999999996102 0  -5.174708335957818 41.01926369327214 0  -5.723509452619737 40.28858119610321 0  -5.172844972076096 40.52241976486093 0  -5.170679033834757 40.02170970553949 0  -5.725358959114323 40.78825490327571 0  -6.276014673795234 40.55369904838776 0  -9 55.99999999999179 0  -8.456932195124152 56.74710563070946 0  -8.456644068991947 56.24704921102048 0  -7.913589633988949 56.4940984188172 0  -9 56.49999999999282 0  -9 56.99999999999384 0  -5.241166464830857 56.01980829291828 0  -5.787251474683866 56.76322084812888 0  -5.785459445357094 56.26313380049463 0  -6.329355303543863 56.50394657452309 0  -5.243491588499331 56.52300856367449 0  -5.245342224018745 57.02103060720819 0  -7.50925038396653 43.01144851751227 0  -6.700618248101406 43.12605953323751 0  -7.282349515086175 43.35073008709497 0  -7.055615086293371 43.69002623966916 0  -6.927344689024143 42.78665133526271 0  -6.345153004359314 42.56186375561602 0  -6.690120491094386 49.02164987047293 0  -7.493413658369196 48.90582069091995 0  -6.915294259852605 48.68221728761372 0  -7.140668108171242 48.34271743912718 0  -7.268060121826999 49.24521177431637 0  -7.845683934643483 49.46892797089841 0  -6.68219431168267 46.02032917729613 0  -7.48824619971982 45.90496246798581 0  -6.908182291766645 45.68065218174236 0  -7.134354074984995 45.34108030814243 0  -7.262085563697171 46.24451766188292 0  -7.841685550987049 46.46863059048963 0  -6.580015872739216 7.021019455904231 0  -7.421613471099169 6.905512201395204 0  -6.816009912986816 6.68157529141034 0  -7.052188947612015 6.342135578092389 0  -7.185445853705004 7.244947705391538 0  -7.790586585791991 7.468862010148407 0  -7.487200612403128 30.01132012719216 0  -6.666595349542664 30.12577014399319 0  -7.256946541406126 30.35028840978766 0  -7.026865615267088 30.68918484769161 0  -6.896677204618556 29.78673356145691 0  -6.3058569120092 29.56226240600635 0  -6.572585907392539 4.020004687667694 0  -7.417153650281559 4.121223969290947 0  -6.810818703207146 4.355560824789676 0  -7.048906774368524 4.691051920588512 0  -7.179075485906878 3.785693217061278 0  -7.785814231971052 3.55151151228332 0  -6.587659664736389 10.02119392207696 0  -7.42694830577101 10.12201942349738 0  -6.824448704321584 10.35648567412012 0  -7.061083885995084 10.69177887860488 0  -7.190297640944431 9.786748058236217 0  -7.793236158910982 9.552275785172666 0  -6.595325034960384 13.02138935305259 0  -7.431583372227527 12.90580985832435 0  -6.829808481227339 12.68195218467818 0  -7.064475734751526 12.34252119129109 0  -7.196919269985814 13.2452708398581 0  -7.798233774100848 13.46909407313804 0  -6.603047012391719 16.02171601513893 0  -7.436634346145262 15.90590712847271 0  -6.836771909598874 15.68230348829884 0  -7.070686822284638 15.34283766279808 0  -7.202736891111395 16.24529463152648 0  -7.8021248067275 16.4689953505639 0  -6.611048222811991 19.0194530096928 0  -7.442227732270536 19.12065456304149 0  -6.845636871905245 19.35439076102005 0  -7.080034476536745 19.68945191220244 0  -7.207812136705758 18.78552901229647 0  -7.804897767235584 18.55154945865652 0  -6.632072928120006 27.01872783184493 0  -7.455942603320296 27.12020133144961 0  -6.864562760577248 27.3540776948057 0  -7.096888630771089 27.68945738553866 0  -7.223615790048306 26.78470526807553 0  -7.815447971924273 26.5508535336382 0  -8.283758173953432 19.09963114670026 0  -8.044402842405947 18.82555821088656 0  -8.402266143227672 18.2758315235477 0  -8.641657068794359 18.54990480792638 0  -9 17.99999999998495 0  -8.29006783248404 27.09940287996763 0  -8.052829242610716 26.82513084925338 0  -8.40754803586657 26.27540783632643 0  -8.644820360147914 26.54969751953071 0  -9 25.99999999995395 0  -8.281211547593877 15.91254233735734 0  -8.04159503416372 16.19078037225976 0  -8.40124010732762 16.73445220027135 0  -8.640821027290331 16.45623809314633 0  -9 16.99999999998883 0  -5.835281588554243 30.11864318694215 0  -6.070492187793188 29.84043151885196 0  -5.714577799768385 29.2960319874429 0  -5.479363140492773 29.57519935559734 0  -5.122379883937731 29.0202090175276 0  -8.278885471149781 12.91253291945153 0  -8.038488144345964 13.19080926893923 0  -8.399288745649375 13.73455587871093 0  -8.639653393315916 13.45627628255038 0  -9 13.99999999999401 0  -8.276733183480335 10.10027095193829 0  -8.035054037987727 9.826274160867428 0  -8.396444431722779 9.276134657269901 0  -8.638158905392478 9.550131484731232 0  -9 8.99999999999857 0  -8.272245237935548 4.099894332533484 0  -8.029091942746145 3.82571967391925 0  -8.392768358754326 3.275726471964334 0  -8.635940353709964 3.549905305624094 0  -9 2.999999999998668 0  -8.274304543345144 6.91238399085405 0  -8.032374403511675 7.190619004764014 0  -8.395464382941503 7.734436925612207 0  -8.637360894752616 7.456204312400969 0  -9 7.999999999999485 0  -8.304939956902437 45.91213056726526 0  -8.073240586849144 46.19035665500724 0  -8.421018317296365 46.73435286215724 0  -8.652682999765318 46.45612893764545 0  -9 46.99999999997333 0  -8.30731814021078 48.91249114788835 0  -8.076425169634144 49.19072132710684 0  -8.423025362673451 49.73441624505225 0  -8.653881664455168 49.45621570711013 0  -9 49.99999999997949 0  -5.881469538686261 43.11889306428498 0  -6.113232492992243 42.84037562724263 0  -5.762502935834465 42.29535351758672 0  -5.530745824596084 42.57494070130112 0  -5.178890300211755 42.01937159350806 0  -5.808951390520503 23.94130166736809 0  -6.052282141413437 24.20684662925736 0  -5.700500552972538 24.75104877394731 0  -6.295457421493464 24.47246061192295 0  -5.457304645635372 24.48646140100644 0  -5.105521609431928 25.02004387036715 0  -8.314409283102741 52.08933995727094 0  -8.079237006554834 51.82366893188156 0  -8.421766325406548 51.2790849253361 0  -7.843913649957622 51.55805560974319 0  -8.656980726768415 51.54475479868839 0  -9 50.99999999998153 0  -5.859066018511037 38.1083864272518 0  -6.096830440986209 37.83833266485283 0  -5.74637992956077 37.29864645244315 0  -6.334745308095161 37.5683383917494 0  -5.508609341434662 37.5698610237141 0  -5.157011523227197 37.01846821604376 0  -5.847792770962365 34.94110860343897 0  -6.08819048479815 35.20650766436603 0  -5.74074249410855 35.75045385852592 0  -6.328433206573844 35.47197117016303 0  -5.500466344922581 35.48615962366658 0  -5.153049710377871 36.01908192785292 0  -7.94409751341697 50.50958296912911 0  -7.89397187186821 51.03384523910552 0  -8.472204835424257 50.75473784891621 0  -6.228448748777232 36.51994482081648 0  -6.28161918549756 37.04401658793246 0  -5.69287067132895 36.77277376391348 0  -6.278410057052755 35.99581981390374 0  -5.690992542757943 36.27253292078497 0  -6.057454268470041 25.28190634023925 0  -6.176414126670218 24.87722450342954 0  -5.581692560606969 25.15467388760841 0  -8.053965303227169 25.75308032750107 0  -7.934654405348925 26.1519661637113 0  -8.527047384671302 25.87654359828215 0  -7.017552814364779 34.39065023773247 0  -6.672779991404215 34.93143090750293 0  -6.920956257246079 35.25398668638856 0  -7.265756860428226 34.71337627657091 0  -7.513777496814479 35.0360658800027 0  -7.167309096830897 52.63880945172863 0  -7.505387429872632 52.0985426391598 0  -7.262091518355521 51.77630106223423 0  -6.924034595990608 52.31663213063916 0  -6.680567809237202 51.99451216353539 0  -7.027066306805454 38.63871392900153 0  -6.681119390578393 38.10364380391425 0  -6.926880576412727 37.7771297302995 0  -7.272807911277289 38.31238165857122 0  -7.518730833961136 37.98600374620624 0  -6.993144862252938 23.39075798712737 0  -6.644092082660717 23.93168402577007 0  -6.895301640850416 24.25433276353738 0  -7.244385570755084 23.71355017229067 0  -7.495445167426367 24.03628556681389 0  -7.904305302552431 17.50947641028104 0  -7.854569078596395 18.03054344673476 0  -8.452305090870718 17.75468335783719 0  -7.853242706793688 16.98924692964207 0  -8.452000486880065 17.2547687319753 0  -7.893694117886526 8.509691587169414 0  -7.843438349920985 9.03098565345344 0  -8.44699082558949 8.754847881371491 0  -7.934224029028225 2.424018204845043 0  -7.859962002227989 2.987739424551628 0  -8.467246918550693 2.712037274126758 0  -7.842169085844491 7.989282094898769 0  -8.446699695639266 8.25483899300958 0  -7.894920258223116 49.98926748986343 0  -8.471891304327114 50.25482371933803 0  -6.158633077732293 41.61267835416578 0  -6.251946077279396 42.08736217585569 0  
[...]
<PointData  Scalars="f_29"> 
<DataArray  type="Float64"  Name="f_29"  format="ascii">3.4454766033182631e+02  3.3260388910513399e+02  3.3642714623390054e+02  3.2832352547369163e+02  3.4067620947312480e+02  3.3681849489005282e+02  3.4439675336103159e+02  3.3245910022800672e+02  3.3627416153439987e+02  3.2816329327959488e+02  3.4053367517670108e+02  3.3673177450002362e+02  5.2390391878438891e+02  5.1164631037559309e+02  5.1556266071328071e+02  5.0723579228071532e+02  5.1993801553701712e+02  5.1603085731953718e+02  5.2401127231848386e+02  5.1234425583640348e+02  5.1570858074549164e+02  5.0743294111408960e+02  5.2061968702053434e+02  5.1723410261356730e+02  8.7995902851357141e+02  8.9290545742643292e+02  8.8417485227589054e+02  8.8830166152198649e+02  8.8872381589069471e+02  8.9752930139854982e+02  8.9735755787255243e+02  8.8508049916749007e+02  8.8861717200365592e+02  8.7987754131202360e+02  8.9380946461721987e+02  8.9027908800572618e+02  6.4048960451984874e+02  6.5304184264838636e+02  6.4459214100585166e+02  6.4863464016347484e+02  6.4899116687036644e+02  6.5748374284804834e+02  6.5762910351411927e+02  6.4523084043699191e+02  6.4914646329222944e+02  6.4065359721255834e+02  6.5369396718080964e+02  6.4975049593233803e+02  9.1477551940610056e+02  9.2786337133680411e+02  9.1910247599267939e+02  9.2338556436313502e+02  9.2354959730294161e+02  9.3236960705429078e+02  9.1491613407418708e+02  9.2797105286530007e+02  9.1921583528262761e+02  9.2345492693821097e+02  9.2368121161045065e+02  9.3250491762426509e+02  6.9130127101176981e+02  6.9315893535454347e+02  6.9702147343775164e+02  7.0274875841183086e+02  6.8744604278682618e+02  6.8359072144823074e+02  7.9355443761381798e+02  7.9165867454087891e+02  7.8775579282001240e+02  7.8196212055175067e+02  7.9746323026057712e+02  8.0136715079610985e+02  7.4227337363545166e+02  7.4038884821141403e+02  7.3652320505750129e+02  7.3077467789778439e+02  7.4614620898618477e+02  7.5001561351897055e+02  1.0746848610321773e+02  1.0574923286234862e+02  1.0223625159119520e+02  9.7007397727466511e+01  1.1098732818562651e+02  1.1450164786249994e+02  4.7440594724340326e+02  4.7620929633976095e+02  4.7995772858208238e+02  4.8551751328463587e+02  4.7066770821215221e+02  4.6693028466034104e+02  6.1196419835141810e+01  6.2826454356567886e+01  6.6373113744103932e+01  7.1551842166796959e+01  5.7655814154016774e+01  5.4115568431411504e+01  1.5411860965622157e+02  1.5576710595539160e+02  1.5937573777102784e+02  1.6463421247441843e+02  1.5051480874861105e+02  1.4691444222857214e+02  2.0110743568958321e+02  1.9935993199724444e+02  1.9579436411292383e+02  1.9048463516387778e+02  2.0467794950507624e+02  2.0824481545992344e+02  2.4844805450094663e+02  2.4669408170963894e+02  2.4309347368467630e+02  2.3774375389967611e+02  2.5205439077330311e+02  2.5565576980603939e+02  2.9620324793757891e+02  2.9791079487408814e+02  3.0159909017632452e+02  3.0700041683527030e+02  2.9252510684823136e+02  2.8884438157233490e+02  4.2536676273473574e+02  4.2710614483262100e+02  4.3086134333920859e+02  4.3635967536502437e+02  4.2162061410958250e+02  4.1787052723535430e+02  2.9764438263651806e+02  2.9324557483041389e+02  2.8450901938527232e+02  2.8889404689265251e+02  2.8020034292688354e+02  4.2683897858460091e+02  4.2235484811923607e+02  4.1344750156631278e+02  4.1791836204237575e+02  4.0904238823820407e+02  2.4687184745710016e+02  2.5126263642646040e+02  2.5990814191678976e+02  2.5551012624332870e+02  2.6411982170840730e+02  4.7597687676324438e+02  4.7145646144060032e+02  4.6253292507535861e+02  4.6700373640917218e+02  4.5816174291569433e+02  1.9953080081552358e+02  2.0388658495431417e+02  2.1245733999783022e+02  2.0810427799947800e+02  2.1665142009156099e+02  1.5549895400964110e+02  1.5120770932732879e+02  1.4267746769042984e+02  1.4695601700983488e+02  1.3846911953012034e+02  6.2568617984021323e+01  5.8342398249055812e+01  4.9941784330281180e+01  5.4164768546191759e+01  4.5811610269717619e+01  1.0591707111959143e+02  1.1020826522845464e+02  1.1865237856384910e+02  1.1435496778618020e+02  1.2276242906190991e+02  7.4058250554600204e+02  7.4529780584275420e+02  7.5458494896146669e+02  7.4987179526140915e+02  7.5913546316564430e+02  7.9185602753950479e+02  7.9661038960654173e+02  8.0597661382976298e+02  8.0121508058035147e+02  8.1054695579827978e+02  6.9292299265588883e+02  6.8825948097451146e+02  6.7905547758225362e+02  6.8366925892429856e+02  6.7455424656383013e+02  3.7532919033411127e+02  3.7966646354810763e+02  3.8846500652338659e+02  3.8400159119063784e+02  3.8408925061440027e+02  3.9291608373194612e+02  8.4665236613037473e+02  8.4203445668240909e+02  8.3266578861815572e+02  8.3741542909366058e+02  8.3726958510002237e+02  8.2794215390503132e+02  6.0849985671037587e+02  6.0402909329220415e+02  5.9502616027159206e+02  5.9955539103824935e+02  5.9943926294954758e+02  5.9053340716756975e+02  5.5566758244471146e+02  5.6012569934402484e+02  5.6916081370546931e+02  5.6458239489781045e+02  5.6465664760787354e+02  5.7371124172724899e+02  8.1930498298673069e+02  8.2836067445538913e+02  8.2359637954793834e+02  5.8209228488031260e+02  5.9082253479721908e+02  5.8629732810746543e+02  5.7332766046383733e+02  5.7792618487663572e+02  3.9713979126061344e+02  3.9056537670918971e+02  3.9506021160707957e+02  4.0492131228315083e+02  4.1139572790007009e+02  4.0696088634562938e+02  5.4669524459743150e+02  5.5562863652373051e+02  5.6101870436378397e+02  5.5207496468189095e+02  5.5745736064848188e+02  8.5606362241085003e+02  8.4673176753564360e+02  8.4112611527389868e+02  8.5044924098608340e+02  8.4483981160790893e+02  6.1753086163403304e+02  6.0852920714269851e+02  6.0309500228337333e+02  6.1208563699040803e+02  6.0664310756720454e+02  3.6658686390882087e+02  3.7528355525556293e+02  3.8052637278031483e+02  3.7181991088162653e+02  3.7705478319379637e+02  2.7221672725513753e+02  2.8053058494335545e+02  2.7618034550563226e+02  2.6392789150680176e+02  2.6819393332423527e+02  1.3067770011067640e+02  1.3879690150475969e+02  1.3454467708193746e+02  3.6842617509946301e+01  4.5479917837044283e+01  4.1303884393880253e+01  1.2258174738156497e+02  1.2674511705805830e+02  8.1032764335304580e+02  8.1495065702925717e+02  6.6760421638021148e+02  6.7559428964794643e+02  6.7106583777160324e+02  3.8785160408181645e+02  3.8592914519235069e+02  3.8244925562973344e+02  8.3100801357161799e+02  8.3421134470171341e+02  8.3792212656338802e+02  5.9334298570876319e+02  5.9645056505747800e+02  5.9998831588869018e+02  5.7077699321877265e+02  5.6768235432031042e+02  5.6411223600971016e+02  4.5381103882912947e+02  4.6036806187839812e+02  4.5597443837400698e+02  7.0338095943450321e+02  6.9346814208099011e+02  7.0306754802666990e+02  7.8131837704064549e+02  7.9133448008061998e+02  7.8164144658961607e+02  7.3012725754374333e+02  7.4006505467455622e+02  7.3045220595568992e+02  9.6416569791356622e+01  1.0545172406610044e+02  9.6714047765293913e+01  7.2058066058131118e+01  6.3081402512537977e+01  7.1807302557743881e+01  4.8625845469643212e+02  4.7657509855191648e+02  4.8589171768539228e+02  1.6514245436718946e+02  1.5602340861136960e+02  1.6489053585832562e+02  1.8988291045286471e+02  1.9905739886402478e+02  1.9018574815545097e+02  2.3714529260549762e+02  2.4639271666010012e+02  2.3744577075940396e+02  3.0766108573227814e+02  2.9824420622518750e+02  3.0733522364649434e+02  4.3690539308753421e+02  4.2738041874398931e+02  4.3663510018354839e+02  4.1259273701380937e+02  4.1523122449494804e+02  4.1897776490724311e+02  2.8302120129191019e+02  2.8593275307293203e+02  2.8960978620521320e+02  2.6139966111512996e+02  2.5852925815567426e+02  2.5492143119705338e+02  4.6139925504768291e+02  4.6416707191478162e+02  4.6789886464266186e+02  2.1376938343535829e+02  2.1100787573238759e+02  2.0743589272566854e+02  1.4135038405103410e+02  1.4413277986333463e+02  1.4773135484533270e+02  5.0650339384812099e+01  5.2383717491782321e+01  5.5921676721764861e+01  1.2011682325931196e+02  1.1731070808405070e+02  1.1378956348958587e+02  6.7786806639299857e+02  6.8073065561077146e+02  6.8458191197579345e+02  8.0758441950028578e+02  8.0447737600652249e+02  8.0056678065704864e+02  7.5599185456132000e+02  7.5300443316732105e+02  7.4912952164733065e+02  6.5867843586048298e+02  6.6261509031169328e+02  9.0619134425771142e+02  8.9724905554507427e+02  9.0181868672932308e+02  9.0611492422374920e+02  8.9819592618070897e+02  9.0173170035558678e+02  9.1474902282211019e+02  9.1044423382033335e+02  9.1482380279089091e+02  9.1055354369435486e+02  2.1561044067577630e+01  3.1504353745470169e+01  2.3864231230727757e+01  2.6163526571329239e+01  2.9195493721705851e+01  9.7155884099264188e+02  9.7161275302090746e+02  9.7834148936628253e+02  9.7166347584861933e+02  9.7829203923514785e+02  9.8502973730171709e+02  9.7156142607716265e+02  9.7161686608256889e+02  9.7834419081432804e+02  9.7829406233324346e+02  9.8502973730171709e+02  9.4431484004638310e+02  9.3384564168439988e+02  9.3832628843547161e+02  9.4436544172255196e+02  9.3391284539465278e+02  9.3841680944609720e+02  1.1788854537168127e+01  1.1836638246960952e+01  5.9379841748488067e+00  1.1880825528727588e+01  5.8935076198056464e+00  0.0000000000000000e+00  3.4988369394461972e+02  3.4391630874257652e+02  3.5109907378057721e+02  3.4270127240776418e+02  3.4867610511267554e+02  5.2952928244967813e+02  5.2339862516087487e+02  5.3076570523026885e+02  5.2216260716805709e+02  5.2829980530231467e+02  6.3489565984136505e+02  6.4115659963567407e+02  6.3368165293734933e+02  6.4236619890792929e+02  6.3609952481074254e+02  8.7535774580268310e+02  8.8183381560117937e+02  8.7935089867034822e+02  8.7289188991274455e+02  8.7041374661621137e+02  1.1649839918432065e+01  1.1767029014904145e+01  5.9391383491050265e+00  5.8216311282760547e+00  0.0000000000000000e+00  3.2387870371364079e+02  3.3035171953602537e+02  3.2612544096524130e+02  5.0273342567579300e+02  5.0938123962164633e+02  5.0499744187991513e+02  6.6198980200349456e+02  6.5531064469360399e+02  6.5972457077369461e+02  8.9723304091563978e+02  9.0618536273968925e+02  9.0616753981973318e+02  9.1477339227368032e+02  9.0614549130518935e+02  9.1480722309223859e+02  8.9822069119811101e+02  6.5786559903766909e+02  6.6679173172569574e+02  6.6598004686445154e+02  3.3346638873438587e+02  3.3509804203664129e+02  3.4228442045936964e+02  3.3514142824723541e+02  3.4395637148529681e+02  5.1154901494970210e+02  5.1378885464060363e+02  5.2115708362412818e+02  5.1439223421601275e+02  5.2399607004437519e+02  8.8539540198825773e+02  8.8685160037651031e+02  8.7790193842435622e+02  6.5214423973152941e+02  6.5094832520379862e+02  6.5906317648861511e+02  6.4170738403998428e+02  6.4290843273562132e+02  6.5039224978850336e+02  9.2186081123090992e+02  9.2265973690166607e+02  9.1401228800990691e+02  9.2262521673699473e+02  9.3027493811356214e+02  9.2950985469303976e+02  9.3715852163225020e+02  8.8783822089367584e+02  8.9577830791115525e+02  9.3030699074771780e+02  3.5086179408101009e+02  3.4384560139851715e+02  3.5098048252876333e+02  5.3052732832817128e+02  5.2388296389110826e+02  5.3064702942235670e+02  6.3400677701340851e+02  6.4187802676585591e+02  6.3385293713215424e+02  2.7762060348486722e+02  2.6680377191381888e+02  1.3601538423284094e+02  4.3747118385903001e+01  1.2539323343026298e+02  8.1344056138357348e+02  8.7949221315677255e+02  8.7200688530988657e+02  8.7359006305871219e+02  8.8193064225920455e+02  2.7226044384014665e+02  2.6682815090835493e+02  2.7224072710482000e+02  2.7763954522936643e+02  1.3072594564512295e+02  1.2541960969890549e+02  1.3070395165541061e+02  3.8176641154708960e+01  4.4413375033386423e+01  3.7512617536159411e+01  1.3603690604621283e+02  8.1934659361664978e+02  8.1346331852768492e+02  8.1932790760604667e+02  3.1858186330117570e+02  3.2867914218279907e+02  3.2602322297724248e+02  3.2123520592575403e+02  4.9739870087161557e+02  5.0714327240375349e+02  5.0447259089941866e+02  5.0006933131536516e+02  6.5706259664485151e+02  6.6398254157343547e+02  6.7273147610115007e+02  6.7192438734238931e+02  9.6067996949441749e+02  9.4916000040416998e+02  9.5734342185178900e+02  9.5400819544939895e+02  9.5249606267496461e+02  9.6068147738376604e+02  9.4917737317662068e+02  9.5734631695445273e+02  9.5251594206725588e+02  9.4075931370351884e+02  9.4073234113770513e+02  2.2217900296024726e+02  2.1520719187778292e+02  2.1944121639527049e+02  7.6510956755578366e+02  7.5755741318548098e+02  7.6214783839678216e+02  8.2515781887549292e+02  5.7642550709508089e+02  5.8771370158751563e+02  8.2517617401735765e+02  5.8203687500462115e+02  5.7640683302979687e+02  5.8206164949354854e+02  5.8769014253544026e+02  4.0097831146509395e+02  4.0875729456982094e+02  4.0678552965619127e+02  4.0294904389414080e+02  4.7444449712571162e+02  4.6625252201661215e+02  4.7522233734253490e+02  2.4831392333875013e+02  2.4759487179506672e+02  2.5622301647254687e+02  2.9610583943047322e+02  2.8814025953580131e+02  2.9687710245387410e+02  4.2527359875273544e+02  4.1714910378510598e+02  4.2605846394855973e+02  6.1090245980960518e+01  5.3437937794539046e+01  6.1831666216879590e+01  1.0732397577092782e+02  1.0662184619473781e+02  1.1505047320544244e+02  1.5399266014517082e+02  1.4621875778446505e+02  1.5474772210924021e+02  2.0096116415368368e+02  2.0024767232530337e+02  2.0880950849787672e+02  7.4213846897628957e+02  7.4136235439097788e+02  7.5063962459225627e+02  7.9342169191911944e+02  7.9264099809395873e+02  8.0199010903674866e+02  6.9134122765294489e+02  6.8289639603343460e+02  6.9214402006242119e+02  3.2803898023172809e+02  3.2060050234016097e+02  3.2260888168478851e+02  5.0665880459946669e+02  4.9958472496187323e+02  5.0176342645306545e+02  4.4811020662147303e+02  4.4282519322509086e+02  4.4875018431936019e+02  4.4218608007702636e+02  4.4747117369362240e+02  7.1616889807676409e+02  7.1007397774592414e+02  7.1675679794987525e+02  7.0947695234346963e+02  7.1559396816523588e+02  7.1734850977213591e+02  7.2343980494931782e+02  7.2403469397203060e+02  7.1794250189062120e+02  4.5760135032944930e+02  4.5127712965810281e+02  4.5507434014849082e+02  3.2966882239935649e+02  5.0949825331610231e+02  3.2167873580931811e+01  3.4654339010760992e+02  5.2610934431420969e+02  8.7765972200354349e+02  6.3829054072111137e+02  3.2539712457227955e+02  5.0461179729899158e+02  3.9248997708580470e+02  3.9441390757574004e+02  3.9905885276888722e+02  5.4525188451715030e+02  5.5489953364727864e+02  5.4597538401218628e+02  8.5755781720334778e+02  8.4747836158533778e+02  8.5681550865617589e+02  6.1883315145186577e+02  6.0917714623783479e+02  6.1818601864907669e+02  3.6537548932344362e+02  3.7467183213092051e+02  3.6598315900101267e+02  1.7751003416495502e+02  1.8371064068028181e+02  1.7754245628323372e+02  1.8367847144937357e+02  1.7747716260192377e+02  1.7134051089316276e+02  1.7130738047818249e+02  8.4232957949184964e+01  9.0337818713921124e+01  8.4262528894121218e+01  9.0307921107549333e+01  8.4203010279922452e+01  7.8157719502186580e+01  7.8128210125199985e+01  9.4558239695508200e+02  3.7669003237749018e+02  3.7602142692400844e+02  3.8476142014457827e+02  8.4516474270296283e+02  8.3654113075636610e+02  8.4590887832430496e+02  6.0710729631874835e+02  5.9876174373529227e+02  6.0781167535183727e+02  5.5706070782238055e+02  5.5637488633714838e+02  5.6534920173890748e+02  4.5870671072777850e+02  4.5372664865857797e+02  4.5308774634238040e+02  7.2683995960369452e+02  7.2179842133981458e+02  7.2121155056751707e+02  7.0668242043030159e+02  7.1171830599952898e+02  7.1231041552697627e+02  2.2586929980238978e+02  2.1797251146442511e+02  2.1981754548354618e+02  2.2402719400917883e+02  7.6909887962940741e+02  7.6054911442134164e+02  7.6254324327525296e+02  7.6710713168878010e+02  0.0000000000000000e+00  0.0000000000000000e+00  5.9396088092526904e+00  9.8502973730171709e+02  9.8502973730171709e+02  9.7834474748182322e+02  9.8502973730171709e+02  0.0000000000000000e+00  3.4771762600305493e+02  5.2728569651292423e+02  8.7673764597587660e+02  6.3735328696920590e+02  9.6611673724810157e+02  9.6616931107328810e+02  9.6611949321304337e+02  9.6617093401870341e+02  4.6548747400357250e+01  3.9409315267781366e+01  4.6248284052117789e+01  4.5969250413082513e+01  3.9721273417504712e+01  3.2877901552400338e+01  3.5811618703521236e+02  3.5823726324843983e+02  5.3788838737951039e+02  5.3800839535662033e+02  6.2641877439267682e+02  6.2625569109402250e+02  8.6556873859766154e+02  8.6398481673849153e+02  3.1513000473890321e+02  3.1311929550171476e+02  4.9400719722294775e+02  4.9183123176589237e+02  3.0486793090915125e+01  3.1714108962643280e+01  3.8212565606783436e+01  1.6671350326010515e+01  1.6722598049885345e+01  2.2966177824633357e+02  2.3150309555896109e+02  7.7321313474905753e+02  7.7520446324990894e+02  2.0816902001778367e+01  1.6230152400960844e+01  1.6347219658748809e+01  2.2733903510674094e+02  2.3482908606818711e+02  2.3254270016572994e+02  7.7070110051509369e+02  7.7881249446542972e+02  7.7633463755651030e+02  3.6191226601610794e+02  3.5650278621836856e+02  3.5529259255022652e+02  5.4209923916467676e+02  5.3642979461858044e+02  5.3519744331512084e+02  6.2212478371504449e+02  6.2790075552813175e+02  6.2911139373287574e+02  8.6140777047073641e+02  8.6591078157202412e+02  8.6837327471386050e+02  3.1734856673659925e+02  3.0987921557679954e+02  3.1206306128333563e+02  4.9633805738267199e+02  4.8859207015584366e+02  4.9090459851833583e+02  2.9831701952511821e+01  2.2201710063837631e+01  2.2835177227817734e+01  7.7640008805520688e+02  7.6750102699253489e+02  7.6384987946372519e+02  7.5860748515357523e+02  7.7275021941561897e+02  1.3076985271381116e+02  1.3497487790477177e+02  1.3922384732172611e+02  1.2652368793495437e+02  1.2232553511368280e+02  2.8008091840297351e+02  2.7186367530084789e+02  2.6795552959025093e+02  2.6365742752600312e+02  2.7617098620718195e+02  1.6982081184357301e+02  1.7753881149883560e+02  1.8140341574900816e+02  1.8527037631147292e+02  1.7368113669945473e+02  7.6654311483365248e+01  8.4256922059972467e+01  8.8063611252896834e+01  9.1871560756012798e+01  8.0458030531420334e+01  2.3261233491003910e+02  2.2102713591063159e+02  2.2924194231752969e+02  2.2439903387274617e+02  2.1619089101876295e+02  3.1022195214878985e+02  3.1440501240337466e+02  3.1704559465916310e+02  4.8929297935150879e+02  4.9334723135718383e+02  4.9600984715065800e+02  6.7627828247300499e+02  6.7112648455361079e+02  6.6913530420542429e+02  3.9126571622062306e+02  3.9612273236484219e+02  3.9808890634005195e+02  4.4099867214263236e+02  4.4487656122059724e+02  4.4740366178706603e+02  4.0349889343730536e+02  4.0541389157495092e+02  4.0984951369102345e+02  5.7333365835315510e+02  5.8649203644089823e+02  5.7768401191813905e+02  5.8213905129465809e+02  5.9095124522047263e+02  8.2839520492602594e+02  8.1920262596593045e+02  8.1468143798119934e+02  8.1002330658748747e+02  8.2387183112371633e+02  2.9517476075605146e+01  3.5531530970795650e+01  3.0265057335455776e+02  3.0486619372275550e+02  4.3187129620108061e+02  4.3924197236120517e+02  4.3420569771645694e+02  4.4156180881944869e+02  1.6031974114783114e+02  1.6737097617979219e+02  1.6254511461422808e+02  1.6957452801102431e+02  6.9815293558304165e+02  7.0585535666257044e+02  7.0059044914334947e+02  7.0827739559286033e+02  1.9470645483040985e+02  1.8757844581899923e+02  1.9239921964899960e+02  1.8530032390679980e+02  7.8658774018237352e+02  7.8407678260881778e+02  7.3535459190310951e+02  7.2763691515128505e+02  7.3286177950347405e+02  7.2518100387356617e+02  1.0116677432465320e+02  9.4148518130842390e+01  9.8895137524354325e+01  9.1907237288874498e+01  6.7312258511115971e+01  7.4254876902229384e+01  6.9505803942887340e+01  7.6425146466119358e+01  2.4200897675455346e+02  2.3968864154349114e+02  4.8111803617506916e+02  4.8341323476699847e+02  5.4807013906520524e+02  5.4289836331406059e+02  5.4057004453006164e+02  5.5045686401771150e+02  6.1615161189399385e+02  6.2137024235237595e+02  6.2387439488962400e+02  6.1366292653202822e+02  8.5455180308170475e+02  8.6002188826241286e+02  8.6244175270679466e+02  8.5210249893035746e