<?xml version="1.0"?>
<VTKFile type="UnstructuredGrid"  version="0.1"  >
<UnstructuredGrid>
<Piece  NumberOfPoints="2690" NumberOfCells="4864">
<Points>
<DataArray  type="Float64"  NumberOfComponents="3"  format="ascii">-5.064615229814505 22.01414572065008 0  -5.656293381862755 21.27677747221588 0  -5.063339166971002 21.51530350262566 0  -5.061834949022832 21.01421694344674 0  -5.657569247104656 21.77703666664354 0  -6.250525184029633 21.53764588562515 0  -9 21.99999999996945 0  -8.406309554973033 21.26545601143589 0  -9 21.49999999997139 0  -9 20.99999999997333 0  -8.406536065819553 21.76543953030555 0  -7.812859225136014 21.53084190655336 0  -9 32.9999999999446 0  -8.411267914425153 32.26540986300436 0  -9 32.49999999994358 0  -9 31.99999999994255 0  -8.411494223497868 32.76541420069697 0  -7.82277425085664 32.53079467855738 0  -5.097512635092563 33.01528983262463 0  -5.602829123265546 32.31148747193729 0  -5.096180616009448 32.51732159006639 0  -5.094581247060199 32.01479521167913 0  -5.604148882322085 32.81187952258178 0  -6.110786021582157 32.60627611769388 0  -5.161249291950748 54.01457298828799 0  -5.741876689867531 54.75139547884083 0  -5.74061761703023 54.25200447732582 0  -6.31979696041178 54.4872961718164 0  -5.162725292976477 54.5156547184892 0  -5.164035693596129 55.01472440203688 0  -9 54.99999999998974 0  -8.49139284345385 54.29860905978637 0  -9 54.49999999998872 0  -9 53.99999999998769 0  -8.491592293629108 54.79854817336668 0  -7.983026445275399 54.59711602519325 0  -9 39.99999999995897 0  -8.415111758620961 40.74036327934574 0  -8.414885386590546 40.24036647113881 0  -7.829987022870227 40.48069048597937 0  -9 40.49999999996 0  -9 40.99999999996102 0  -5.121575405826746 41.0135242391829 0  -5.67875491071994 40.28237881348439 0  -5.120254894175163 40.51571996238629 0  -5.118779252168813 40.01522957200233 0  -5.680032778330701 40.78214956489546 0  -6.238533633330377 40.54829974862632 0  -9 55.99999999999179 0  -8.446140457643327 56.74597720885366 0  -8.445943343764437 56.24593873214606 0  -7.892093047142678 56.49187677418835 0  -9 56.49999999999282 0  -9 56.99999999999384 0  -5.167332253695131 56.01391608861517 0  -5.723239199165628 56.75729220113415 0  -5.721997683930758 56.25723270461346 0  -6.276429932517798 56.49879165722066 0  -5.168899936540956 56.5161232114956 0  -5.170206211205875 57.01476896511392 0  -7.487397647998043 43.00801091396674 0  -6.666805089164574 43.12068493962781 0  -7.256962329000082 43.34670750773209 0  -7.026644149081353 43.68541509657101 0  -6.897121363463722 42.78190061242421 0  -6.306641942321436 42.55579479547109 0  -6.651243613186902 49.01512838972869 0  -7.468121135634703 48.90160480181451 0  -6.880488918863134 48.67632517255636 0  -7.109867351205387 48.33747623818862 0  -7.238754512916983 49.24037810215664 0  -7.826049617626433 49.46573611226533 0  -6.645748260817409 46.01420864295466 0  -7.464539212738954 45.90101003205449 0  -6.875550534330591 45.67523870741869 0  -7.105478356839487 45.3363420719482 0  -7.234619694111919 46.23989590807171 0  -7.823286204347879 46.46552996522954 0  -6.57482886322206 7.014707034038354 0  -7.418290933674101 6.901403788280507 0  -6.811575505066485 6.675895905600456 0  -7.048448275976458 6.337088157599212 0  -7.181426569213296 7.240209179073985 0  -7.787820793932975 7.46570077021263 0  -7.472137424039943 30.00792050059072 0  -6.643259545724679 30.12048346188105 0  -7.239378759931884 30.34639972330662 0  -7.006740534916051 30.68482966141335 0  -6.875900571307351 29.78195693780771 0  -6.279455285678796 29.55607235160152 0  -6.569608960915368 4.01400123253835 0  -7.415157735377061 4.117306112623655 0  -6.807928745435722 4.35009201703728 0  -7.04614263969533 4.686136754844774 0  -7.176950974373178 3.78123290541206 0  -7.784468296445947 3.548556343517875 0  -6.580175474119127 10.01483287495657 0  -7.422023622883246 10.11786217139449 0  -6.817479353193702 10.35073828768697 0  -7.054672478498329 10.68664437884312 0  -7.184820804595664 9.781970668920941 0  -7.789674578660533 9.549090881609608 0  -6.585536272316068 13.01496466377524 0  -7.425265936438497 12.9016112280746 0  -6.821227836541167 12.67615839847272 0  -7.057044732280681 12.33735675450017 0  -7.189452918542496 13.24043441087091 0  -7.793170973060998 13.46586250146852 0  -6.590928087376104 16.01519366138607 0  -7.428789117335398 15.90167856618531 0  -6.826090088336819 15.67640428528187 0  -7.061380585949825 15.33757795556343 0  -7.193509211686323 16.24045021725208 0  -7.795881202803046 16.46579240192548 0  -6.596452807575108 19.01360776109415 0  -7.432651955440005 19.11690436081217 0  -6.832207379402713 19.34926843033416 0  -7.067832765868946 19.68501507140544 0  -7.197015612206044 18.78111351880865 0  -7.797797148215154 18.54858002090272 0  -6.611030427789378 27.01309945705326 0  -7.442160142195472 27.11658618645485 0  -6.845338282700104 27.34904751732338 0  -7.07952995034729 27.68501617878161 0  -7.207965373820967 26.78053674696158 0  -7.805103909985785 26.5480932278455 0  -8.279360436415534 19.09790978067617 0  -8.038630262342547 18.82322247374502 0  -8.398772846212061 18.27432964277116 0  -8.639527590127193 18.54901707740434 0  -9 17.99999999998495 0  -8.283733918305423 27.09774964943193 0  -8.044468682820314 26.8229232396401 0  -8.402429508002783 26.27403350317343 0  -8.641718416617996 26.54887213555532 0  -9 25.99999999995395 0  -8.277601217198793 15.910606828901 0  -8.036690578562398 16.18820767610575 0  -8.398063912271084 16.73286420892249 0  -8.638949990947504 16.45528016438264 0  -9 16.99999999998883 0  -5.803614686520153 30.11120861137107 0  -6.041481232115349 29.8336240065811 0  -5.682688257023345 29.28844691078349 0  -5.444805044402443 29.56669855767317 0  -5.0853754420846 29.01413241060636 0  -8.275979573057381 12.91060082603087 0  -8.034525455896443 13.18822869446224 0  -8.396705984952638 13.73293742988442 0  -8.638136910792289 13.45530728226508 0  -9 13.99999999999401 0  -8.274473874748614 10.09835861613495 0  -8.032122983930257 9.823725325404782 0  -8.394716077028324 9.274543132249018 0  -8.637091358074429 9.549176497096402 0  -9 8.99999999999857 0  -8.271327642202712 4.098095400029642 0  -8.027942062296031 3.823337651381194 0  -8.392136623182433 3.274257648105588 0  -8.635535092876593 3.549018355852901 0  -9 2.999999999998668 0  -8.272774351708263 6.910497028362208 0  -8.03024799731474 7.188096092570853 0  -8.394030352035234 7.732854578971388 0  -8.636532973372802 7.455257140899675 0  -9 7.999999999999485 0  -8.294037748000543 45.9103155757496 0  -8.058611789706648 46.18790619905641 0  -8.411765531659196 46.73279093977393 0  -8.647167235543185 46.4552017882766 0  -9 46.99999999997333 0  -8.295685508816579 48.91056484283664 0  -8.06081562922412 49.18815854444158 0  -8.413150796093175 49.73283473568913 0  -8.647995650908776 49.45526171355804 0  -9 49.99999999997949 0  -5.835572097497706 43.11138205261039 0  -6.071052180268801 42.83358405459303 0  -5.715840444161631 42.28797310878356 0  -5.480348929976824 42.56651667354835 0  -5.124470892194363 42.01355424760673 0  -5.783889094332098 23.93379516185183 0  -6.028864376564658 24.20000124747517 0  -5.673662823945337 24.74350618742833 0  -6.273732490922915 24.46625461872184 0  -5.428768095111838 24.47797055215813 0  -5.073683621805825 25.01405204993432 0  -8.302032143379259 52.08763736720184 0  -8.062714006937759 51.8213447648957 0  -8.411516564745492 51.27758554615299 0  -7.82329287210453 51.55509227604207 0  -8.650863597436556 51.54387731196906 0  -9 50.99999999998153 0  -5.818618169764284 38.10095876124788 0  -6.059734912097246 37.83159946418533 0  -5.705455556058735 37.29125569845608 0  -6.30095671382434 37.56228666965625 0  -5.464319595703302 37.56142203861403 0  -5.109357205624231 37.01292421846754 0  -5.810823101172462 34.93365920736057 0  -6.05376146740637 35.1997637420227 0  -5.701561628974757 35.74309138480631 0  -6.296592958356886 35.46591326201258 0  -5.458694463791503 35.47775819314013 0  -5.106634821877547 36.01340229946677 0  -7.925705431694542 50.50675038619139 0  -7.874476649411242 51.03093929962179 0  -8.462959598388537 50.75333781732991 0  -6.194379748613194 36.51396584447907 0  -6.247684012163568 37.03803843169931 0  -5.651930888362179 36.76594868559064 0  -6.245466582714909 35.98984628057534 0  -5.650641300257139 36.26578951822095 0  -6.033022846190661 25.27532105261977 0  -6.153347287162607 24.87081792697043 0  -5.553450433921917 25.1472711188448 0  -8.045960247060947 25.75089800115478 0  -7.92549569875673 26.14949511847295 0  -8.523025426452358 25.87545134602098 0  -6.994706682908256 34.38621957404032 0  -6.645502146588033 34.92614792317178 0  -6.896344573374584 35.24930434431162 0  -7.245567415469806 34.70949341913284 0  -7.496301427332408 35.0327420463664 0  -7.133814446835204 52.63439047510133 0  -7.478401911373788 52.09481734303795 0  -7.230943339371438 51.77188047050792 0  -6.88637094555881 52.31149729945363 0  -6.638796770841287 51.98864468584303 0  -7.001287219138529 38.63432552125062 0  -6.651269558285145 38.0983877826465 0  -6.900441539326654 37.77246499700684 0  -7.250444419934152 38.30852770425153 0  -7.499727380367403 37.98269907546351 0  -6.977780484559908 23.38629505186518 0  -6.625610962784434 23.92632511862045 0  -6.878559627410088 24.24954585208988 0  -7.230749144645817 23.7096151010923 0  -7.483592296425269 24.03289546129481 0  -7.898200008735959 17.50662909519875 0  -7.847976817923053 18.02762575205011 0  -8.449205320211876 17.75327606274672 0  -7.847060051019137 16.98621848070767 0  -8.448994831989372 17.25333587518747 0  -7.890795532084364 8.506781869289295 0  -7.840216016536059 9.027937728288572 0  -8.44549877608252 8.753392431701929 0  -7.933344632549194 2.421489458340111 0  -7.858865739144924 2.985005022902557 0  -8.466767613727253 2.710764568174849 0  -7.839328014914587 7.986245029099446 0  -8.445295082933375 8.253386166642883 0  -7.875897951051908 49.98625164304666 0  -8.462745027383058 50.25339734509576 0  -6.118422882935621 41.60681317176477 0  -6.212567104862392 42.0813
[...]
<PointData  Scalars="f_29"> 
<DataArray  type="Float64"  Name="f_29"  format="ascii">3.8619692147801436e+02  3.7291046044270320e+02  3.7716695023346597e+02  3.6815296944365269e+02  3.8188643041089767e+02  3.7760601757976394e+02  3.8608571714681347e+02  3.7280194361759777e+02  3.7705394384058212e+02  3.6803484361543678e+02  3.8177908186489753e+02  3.7754099635731757e+02  5.8480184954866479e+02  5.7127014483954656e+02  5.7559974500865587e+02  5.6641283234956347e+02  5.8041572267463869e+02  5.7609652523205011e+02  5.8486947419005764e+02  5.7199766071248791e+02  5.7571201366420951e+02  5.6657867268605344e+02  5.8112414288793934e+02  5.7739596396495040e+02  9.7446262368092982e+02  9.8853126600665018e+02  9.7904396447653198e+02  9.8353496380081685e+02  9.8398782304494932e+02  9.9355518553335253e+02  9.9341296855603764e+02  9.8007041021451596e+02  9.8391944727995428e+02  9.7442539412788517e+02  9.8955073363481802e+02  9.8570853183551662e+02  7.1302105050093292e+02  7.2678178871531213e+02  7.1751326989951644e+02  7.2193760751582431e+02  7.2234792524832324e+02  7.3166373221932872e+02  7.3176983877113742e+02  7.1817238934585885e+02  7.2246853863841909e+02  7.1315423290757008e+02  7.2745136662103823e+02  7.2313434426607739e+02  1.0123200256151893e+03  1.0265169717612027e+03  1.0170091526890958e+03  1.0216485903855391e+03  1.0218422766636312e+03  1.0314157174881434e+03  1.0124316904170732e+03  1.0266009283937613e+03  1.0170980605950692e+03  1.0217028729768716e+03  1.0219450411110004e+03  1.0315212081636125e+03  7.6869748368420949e+02  7.7072328398593186e+02  7.7495741186797579e+02  7.8122310313371611e+02  7.6446871948363696e+02  7.6024115586669882e+02  8.8043696334858669e+02  8.7838211922678499e+02  8.7411632351715434e+02  8.6779950874548183e+02  8.8470727024599432e+02  8.8897287856871606e+02  8.2445057935013506e+02  8.2240209811430498e+02  8.1816705228411320e+02  8.1188445246790354e+02  8.2869096204374205e+02  8.3292874631557049e+02  1.2118928499150118e+02  1.1926905693225406e+02  1.1530761907937492e+02  1.0942849694813084e+02  1.2515531967321999e+02  1.2911720069551401e+02  5.3014508321741596e+02  5.3212945193729240e+02  5.3627504937536378e+02  5.4241183978134086e+02  5.2600784927288805e+02  5.2187128171055440e+02  6.9085930382396455e+01  7.0934679921965440e+01  7.4923864432054643e+01  8.0763552930828865e+01  6.5101172003976899e+01  6.1117386996049447e+01  1.7358507391880241e+02  1.7544991986762699e+02  1.7948590089176435e+02  1.8538780211146550e+02  1.6955280017622528e+02  1.6552410087079463e+02  2.2624437054073584e+02  2.2430306403825560e+02  2.2030032028214910e+02  2.1435878218101240e+02  2.3025087787454805e+02  2.3425413989101216e+02  2.7917637723403777e+02  2.7723109122138140e+02  2.7319990024368570e+02  2.6722716405743722e+02  2.8321189890788150e+02  2.8724263747820919e+02  3.3243502143409279e+02  3.3434631436692200e+02  3.3844467338558439e+02  3.4445909316813129e+02  3.2834482129116981e+02  3.2425329278173785e+02  4.7589271318268578e+02  4.7782779717757887e+02  4.8197792280380230e+02  4.8806644527816223e+02  4.7174944372197200e+02  4.6760316853692785e+02  3.3406326539471945e+02  3.2915977042401437e+02  3.1943346966984660e+02  3.2432365011689723e+02  3.1464373766784360e+02  4.7754469976957625e+02  4.7257416719658579e+02  4.6271249256400887e+02  4.6767008518499500e+02  4.5784192566553054e+02  2.7744534223995322e+02  2.8234279599990975e+02  2.9200023213766110e+02  2.8709648983596998e+02  2.9671052235809003e+02  5.3187107587927733e+02  5.2687385144870427e+02  5.1700133045215841e+02  5.2195703006377198e+02  5.1215888766260093e+02  2.2451155741765544e+02  2.2938162920921630e+02  2.3898015064331690e+02  2.3411478574844494e+02  2.4368480049826536e+02  1.7516660026286493e+02  1.7034654917495939e+02  1.6078085045295151e+02  1.6558830792365407e+02  1.5606904756809863e+02  7.0658488041968582e+01  6.5888318311407957e+01  5.6419689142497774e+01  6.1187904353857171e+01  5.1769865532142141e+01  1.1947373972980508e+02  1.2429441383489699e+02  1.3379518460934651e+02  1.2896925360992671e+02  1.3842627826122629e+02  8.2262854962795382e+02  8.2777734872052383e+02  8.3793163172231664e+02  8.3278712421343334e+02  8.4291288736708088e+02  8.7861192414204299e+02  8.8379117549373336e+02  8.9400765405233938e+02  8.8882212720470238e+02  8.9899627526212953e+02  7.7046322932156545e+02  7.6535480550077966e+02  7.5526634051798942e+02  7.6033252251474312e+02  7.5032745573607860e+02  4.2041150879300818e+02  4.2522253616148527e+02  4.3497131140057621e+02  4.3003219059602378e+02  4.3013258830480441e+02  4.3989547939363689e+02  9.3829580852237132e+02  9.3326703390270461e+02  9.2307831442197232e+02  9.2823660559044765e+02  9.2809321732851390e+02  9.1794971574175463e+02  6.7787507838933163e+02  6.7296107185487506e+02  6.6305708515090964e+02  6.6804398747564028e+02  6.6792257401906045e+02  6.5810912259312215e+02  6.1976786572953836e+02  6.2467345151646077e+02  6.3460528262689536e+02  6.2957819278376280e+02  6.2966285275282826e+02  6.3959701020941509e+02  9.0852052244008894e+02  9.1838031090241952e+02  9.1320305374564407e+02  6.4882943045043385e+02  6.5843738710660386e+02  6.5344557361711077e+02  6.3919454869870049e+02  6.4424082635447735e+02  4.4459203088097206e+02  4.3730716009916296e+02  4.4227677222714146e+02  4.5325620428894587e+02  4.6043020012429173e+02  4.5552490473192569e+02  6.0989212483869721e+02  6.1972787946683889e+02  6.2566332562041896e+02  6.1581959666318983e+02  6.2174914464914059e+02  9.4851498029476295e+02  9.3836869081161751e+02  9.3226571300091666e+02  9.4240473136373453e+02  9.3629838427331663e+02  6.8779888490042333e+02  6.7790968443452050e+02  6.7194042504454569e+02  6.8182082307981796e+02  6.7584483877476976e+02  4.1071064998519768e+02  4.2036363703423257e+02  4.2618407708599068e+02  4.1652378985063729e+02  4.2233798264526115e+02  3.0572149953032374e+02  3.1498876110189138e+02  3.1014984666140953e+02  2.9647397173530584e+02  3.0124466657375564e+02  1.4729675114892265e+02  1.5641250610696736e+02  1.5164958758820123e+02  4.1628963259815464e+01  5.1375566874550699e+01  4.6673190522516848e+01  1.3819927869598970e+02  1.4288963217322075e+02  8.9873852715943565e+02  9.0378638703886281e+02  7.4271182235865786e+02  7.5147513433890867e+02  7.4650029562161774e+02  4.3431145439344243e+02  4.3217400605885240e+02  4.2832142842935093e+02  9.2125014326576763e+02  9.2474289799288272e+02  9.2877286521507358e+02  6.6122039501668803e+02  6.6463300624044882e+02  6.6852896999101176e+02  6.3640115059737832e+02  6.3299200085416760e+02  6.2907125948765201e+02  5.0735421776408953e+02  5.1461152911190902e+02  5.0973885092419403e+02  7.8190469093582658e+02  7.7105911983776923e+02  7.8156624945487602e+02  8.6711011014771782e+02  8.7803493414800039e+02  8.6745538342709631e+02  8.1119017050165894e+02  8.2205463826852599e+02  8.1153796387995374e+02  1.0877752050582868e+02  1.1894142405912773e+02  1.0910448876764987e+02  8.1347240961999418e+01  7.1228425304302291e+01  8.1057288615561191e+01  5.4322115731563258e+02  5.3253089034924494e+02  5.4282009106988664e+02  1.8597407866735921e+02  1.7574535202438327e+02  1.8568277959125271e+02  2.1370024545109112e+02  2.2397207862174105e+02  2.1403090480255159e+02  2.6657259844520343e+02  2.7690143138341693e+02  2.6690049652168534e+02  3.4520687525776401e+02  3.3472334874936405e+02  3.4483715123837879e+02  4.8868211401910929e+02  4.7813693576079822e+02  4.8837639474143811e+02  4.6174469395084594e+02  4.6467340888484182e+02  4.6881758835934727e+02  3.1775342248626310e+02  3.2100315401131513e+02  3.2509250198487950e+02  2.9363972058518613e+02  2.9044262104347700e+02  2.8640602946344461e+02  5.1576333135799212e+02  5.1881898941524992e+02  5.2295141673244575e+02  2.4042115675145038e+02  2.3733841482800904e+02  2.3333066299171472e+02  1.5926553037639971e+02  1.6239477810901295e+02  1.6642309126729523e+02  5.7197435471067671e+01  5.9157712485192860e+01  6.3140624498858699e+01  1.3541552162341256e+02  1.3226776156801404e+02  1.2829977306852487e+02  7.5397568455020098e+02  7.5710919193049006e+02  7.6133492096324130e+02  8.9573680048932056e+02  8.9235632751348419e+02  8.8808467230474548e+02  8.3944619932988223e+02  8.3618815198607467e+02  8.3194583834076911e+02  7.3292371133679922e+02  7.3723869459142202e+02  1.0029669468130256e+03  9.9325357062664398e+02  9.9821878279109535e+02  1.0029063288636912e+03  9.9430665655696328e+02  9.9815460243521488e+02  1.0122766700305011e+03  1.0076114003993416e+03  1.0123355337935918e+03  1.0076967646428360e+03  2.4369245349297092e+01  3.5596215147767367e+01  2.6967294359229456e+01  2.9561970026776486e+01  3.2992916321452462e+01  1.0738799604142998e+03  1.0739368144597677e+03  1.0812230764582855e+03  1.0739906829280478e+03  1.0811703418948405e+03  1.0884644064852848e+03  1.0738837132374845e+03  1.0739409378596968e+03  1.0812257709124717e+03  1.0811730012084390e+03  1.0884644064852848e+03  1.0443565052565314e+03  1.0329991507525867e+03  1.0378681667009423e+03  1.0443942471861417e+03  1.0330511700470088e+03  1.0379374054812824e+03  1.3329965644106679e+01  1.3380140545551113e+01  6.7125219574736379e+00  1.3428312225068343e+01  6.6643121232439171e+00  0.0000000000000000e+00  3.9215893890801169e+02  3.8552148063851826e+02  3.9350007271129505e+02  3.8418160017233913e+02  3.9082699931632760e+02  5.9097995771310173e+02  5.8421620728788969e+02  5.9233437715989533e+02  5.8286263740021786e+02  5.8963369890760134e+02  7.0686406566555922e+02  7.1372918925875194e+02  7.0552386803766194e+02  7.1506511912833457e+02  7.0819338435667862e+02  9.6947223345544842e+02  9.7650704814742232e+02  9.7381854093546838e+02  9.6679974123837212e+02  9.6411367672239544e+02  1.3170461052962464e+01  1.3300315308263057e+01  6.7136003434917360e+00  6.5827626081101664e+00  0.0000000000000000e+00  3.6321496894259360e+02  3.7041314132645823e+02  3.6570723578430886e+02  5.6142951688886455e+02  5.6876253814246002e+02  5.6393552969759492e+02  7.3658690473165859e+02  7.2926091049671356e+02  7.3411134536142390e+02  9.9324192707628356e+02  1.0029624046528976e+03  1.0029486173706628e+03  1.0122960607551250e+03  1.0029312086322657e+03  1.0123226359761392e+03  9.9432604662808410e+02  7.3204016027473824e+02  7.4182713811765871e+02  7.4094469639588647e+02  3.7389411310283782e+02  3.7571610709864973e+02  3.8369933712771876e+02  3.7574866111511210e+02  3.8555172908471025e+02  5.7113877266681664e+02  5.7361603014438799e+02  5.8173715123065961e+02  5.7426739526381118e+02  5.8486198993785024e+02  9.8039207951668971e+02  9.8196653395552244e+02  9.7225038624608089e+02  7.2577319929189514e+02  7.2445438705315007e+02  7.3336008017722054e+02  7.1432104826416219e+02  7.1564417281216015e+02  7.2385825936582978e+02  1.0199827437612225e+03  1.0208444711782623e+03  1.0114642061423660e+03  1.0208174413885638e+03  1.0291187518959284e+03  1.0282830613054905e+03  1.0365822878831143e+03  9.8305100096982221e+02  9.9166777638515782e+02  1.0291436628816966e+03  3.9322299457043806e+02  3.8541905632129215e+02  3.9336012589182394e+02  5.9205880280337738e+02  5.8472933001860679e+02  5.9219603089572934e+02  7.0586928922684467e+02  7.1450038378590227e+02  7.0570481360369411e+02  3.1173960749084250e+02  2.9967638189894063e+02  1.5328314714362784e+02  4.9414953823718839e+01  1.4135212298124827e+02  9.0212462185854372e+02  9.7398567276033953e+02  9.6585098007678505e+02  9.6757917603965791e+02  9.7664031296668202e+02  3.0575466322568764e+02  2.9969552439041871e+02  3.0573989052624040e+02  3.1175311373939803e+02  1.4733456285174165e+02  1.4137351142536664e+02  1.4731736473017560e+02  4.3122369227924118e+01  5.0160028105326553e+01  4.2378342363910335e+01  1.5329920970490497e+02  9.0855058292926276e+02  9.0214180415073099e+02  9.0853734149760669e+02  3.5734172225554994e+02  3.6856070212868235e+02  3.6561672169990402e+02  3.6028317681320107e+02  5.5552637305534483e+02  5.6628680334148214e+02  5.6333129594997570e+02  5.5848135306276458e+02  7.3117548320572791e+02  7.3876285652671493e+02  7.4833995890413212e+02  7.4746089003790769e+02  1.0620937258689382e+03  1.0496052123468273e+03  1.0584753930926161e+03  1.0548583084647196e+03  1.0532247709259689e+03  1.0620934999236076e+03  1.0496177492295442e+03  1.0584769119953269e+03  1.0532383059462340e+03  1.0404848262304963e+03  1.0404644166344210e+03  2.4984571927182100e+02  2.4204552825135741e+02  2.4679381060640569e+02  8.4941980211534622e+02  8.4116953330112096e+02  8.4619438368997885e+02  9.1488723867545616e+02  6.4260708488997000e+02  6.5502288933679858e+02  9.1489954068724217e+02  6.4878650460845188e+02  6.4259364206235364e+02  6.4880566419152547e+02  6.5500372758845060e+02  4.4886785441609356e+02  4.5750073120758151e+02  4.5530644072717814e+02  4.5106124072860405e+02  5.3017471435721416e+02  5.2112481442365663e+02  5.3103172369243453e+02  2.7907014158964046e+02  2.7825923260988316e+02  2.8789879080363625e+02  3.3236290579442675e+02  3.2349034970996314e+02  3.3321456536278276e+02  4.7582334473489198e+02  4.6682391455674662e+02  4.7668574293440201e+02  6.9005236843361402e+01  6.0374293145208100e+01  6.9833709313740982e+01  1.2107056976813438e+02  1.2027296329092245e+02  1.2975796246624000e+02  1.7349181051150347e+02  1.6476783235594803e+02  1.7433079756470792e+02  2.2612789226272997e+02  2.2532103459333618e+02  2.3491093554489424e+02  8.2434281973169107e+02  8.2348715716879258e+02  8.3363194411076313e+02  8.8033287451063279e+02  8.7947401389422521e+02  8.8967272998811870e+02  7.6872926956770118e+02  7.5948400460982452e+02  7.6960543139576032e+02  3.6786872329390104e+02  3.5959553288727312e+02  3.6183944666813113e+02  5.6573562092945997e+02  5.5793031953657567e+02  5.6032753538119493e+02  5.0107741034748858e+02  4.9522687778149714e+02  5.0177573301471688e+02  4.9452911779032513e+02  5.0038012273534633e+02  7.9589502503800804e+02  7.8923165509642399e+02  7.9654999244695080e+02  7.8856857294150882e+02  7.9525030249901215e+02  7.9720808373508089e+02  8.0386823017185964e+02  8.0452954826148516e+02  7.9786846492847417e+02  5.1155587032796808e+02  5.0456190534551234e+02  5.0876929930185139e+02  3.6968889572032606e+02  5.6886128543247469e+02  3.6340177639896162e+01  3.8846371476378835e+02  5.8722562606176780e+02  9.7196662511556553e+02  7.1060206482886974e+02  3.6494956831021858e+02  5.6346432234002225e+02  4.3944716361822384e+02  4.4158864861969488e+02  4.4673009744520198e+02  6.0829518054378104e+02  6.1892292633998761e+02  6.0909468976409460e+02  9.5015028218950499e+02  9.3918676219163444e+02  9.4933704197337511e+02  6.8922186709364087e+02  6.7861947098019948e+02  6.8851397975351574e+02  4.0935853997133597e+02  4.1968237272021582e+02  4.1003568779913633e+02  1.9983504948696662e+02  2.0677871504510580e+02  1.9986015143931812e+02  2.0675383200434308e+02  1.9980958105518903e+02  1.9291547489808906e+02  1.9288981006011142e+02  9.5059235888722881e+01  1.0192888638774640e+02  9.5082700761426352e+01  1.0190521582103732e+02  9.5035568791180324e+01  8.8212866962268166e+01  8.8189493701822485e+01  1.0457204547099093e+03  4.2192013244591573e+02  4.2117563807823370e+02  4.3087570969400861e+02  9.3668983845711227e+02  9.2730718679151664e+02  9.3749249031397471e+02  6.7634271444439423e+02  6.6717580132578826e+02  6.7711455452658583e+02  6.2129971279800645e+02  6.2054244210403272e+02  6.3042163884847662e+02  5.1279991878071928e+02  5.0728643048399067e+02  5.0658920785652214e+02  8.0756612588687290e+02  8.0205758909486212e+02  8.0140434194938882e+02  7.8554208128210030e+02  7.9104524031600567e+02  7.9170328825661227e+02  2.5395338272269487e+02  2.4513189566249346e+02  2.4718571706507015e+02  2.5190220988371857e+02  8.5375921489425195e+02  8.4443144334146109e+02  8.4660092547948943e+02  8.5159203897965585e+02  0.0000000000000000e+00  0.0000000000000000e+00  6.7136496282460678e+00  1.0884644064852848e+03  1.0884644064852848e+03  1.0812260233316558e+03  1.0884644064852848e+03  0.0000000000000000e+00  3.8972159477558802e+02  5.8847924181028577e+02  9.7100628338740160e+02  7.0953479060956488e+02  1.0679844841749270e+03  1.0680392460937687e+03  1.0679881926055994e+03  1.0680412122317866e+03  5.2557990642023910e+01  4.4492761859389326e+01  5.2211301929007647e+01  5.1890585290554171e+01  4.4851667115724482e+01  3.7131765012585099e+01  4.0128885967833043e+02  4.0142929494784681e+02  6.0017611986245265e+02  6.0031453669300333e+02  6.9754460944583752e+02  6.9737145276837225e+02  9.5885983074626097e+02  9.5713172972398797e+02  3.5351817147571160e+02  3.5127284833722058e+02  5.5177039227033390e+02  5.4937624683877380e+02  3.4440616172563402e+01  3.5815568227735142e+01  4.3151119105007957e+01  1.8846340180838496e+01  1.8900399695310988e+01  2.5820974354398010e+02  2.6025934400501040e+02  8.5826520212423850e+02  8.6043098385672965e+02  2.3523288103085875e+01  1.8343961036666443e+01  1.8474608843487616e+01  2.5562565144476028e+02  2.6399525441851864e+02  2.6145216518129951e+02  8.5553452485301204e+02  8.6438592839882256e+02  8.6169466017789273e+02  4.0552960183413740e+02  3.9951260267240144e+02  3.9817692667275929e+02  6.0483890773965550e+02  5.9858451317875915e+02  5.9723449213424180e+02  6.9285229927652711e+02  6.9918619492151947e+02  7.0052244211020900e+02  9.5431528349188557e+02  9.5921471381948538e+02  9.6188604394899369e+02  3.5599756669383936e+02  3.4768496528471405e+02  3.5012474109955872e+02  5.5433772831109172e+02  5.4578888580899502e+02  5.4833098307279806e+02  3.3716119590438161e+01  2.5096421371830118e+01  2.5817063286447368e+01  8.6171853811344204e+02  8.5200047787276765e+02  8.4802049723804657e+02  8.4228735408428872e+02  8.5773950785204886e+02  1.4736880761914634e+02  1.5209935240250167e+02  1.5686412514982553e+02  1.4260618946592268e+02  1.3788103451467055e+02  3.1446317753239146e+02  3.0529766528268635e+02  3.0094539254755222e+02  2.9614162378639060e+02  3.1010924349253582e+02  1.9118868785659211e+02  1.9984130171414870e+02  2.0417982389908988e+02  2.0850444659388731e+02  1.9552416449024099e+02  8.6500215253477563e+01  9.5063271230162101e+01  9.9356410303297849e+01  1.0363571495074312e+02  9.0791273871293768e+01  2.6148011009396419e+02  2.4852987719468209e+02  2.5771765294196524e+02  2.5229334091825720e+02  2.4311111122176581e+02  3.4803119970920227e+02  3.5268953352980992e+02  3.5561856910077091e+02  5.4659225425106490e+02  5.5106101070178102e+02  5.5400753789514920e+02  7.5224583737403691e+02  7.4659264752117735e+02  7.4441822092308666e+02  4.3811091991393158e+02  4.4349047166832850e+02  4.4567901610491231e+02  4.9318499935177317e+02  4.9748280895994895e+02  5.0026810158024290e+02  4.5164495262575002e+02  4.5377824553176390e+02  4.5869009421368958e+02  6.3922832917747655e+02  6.5369411538985787e+02  6.4400616298894818e+02  6.4891376803714024e+02  6.5860428655729436e+02  9.1839078732868757e+02  9.0837911469614141e+02  9.0346174917222004e+02  8.9837855303279662e+02  9.1347155907364527e+02  3.3344785461681894e+01  4.0131026783468286e+01  3.3963292940717821e+02  3.4210936284054668e+02  4.8311270308862419e+02  4.9127725647269818e+02  4.8570649502763035e+02  4.9385342401354853e+02  1.8056948061603990e+02  1.8848474623787726e+02  1.8307753292727523e+02  1.9096700976029581e+02  7.7618449794134710e+02  7.8460498382265200e+02  7.7885539923316003e+02  7.8725330442743700e+02  2.1910564511275408e+02  2.1113071993194851e+02  2.1653415573257257e+02  2.0859049305694978e+02  8.7286174377981877e+02  8.7013372645109939e+02  8.1690927420417643e+02  8.0847729804675987e+02  8.1419468824027490e+02  8.0580339783304362e+02  1.1412575579018366e+02  1.0623571583580031e+02  1.1158126958748684e+02  1.0372387415023854e+02  7.6001889187233346e+01  8.3833048203284648e+01  7.8485157095868104e+01  8.6289405119839586e+01  2.7200961286828527e+02  2.6942915479061116e+02  5.3754606238282474e+02  5.4008349026053850e+02  6.1140412836515543e+02  6.0569258690756669e+02  6.0312043844290122e+02  6.1402961452039881e+02  6.8627966338959641e+02  6.9199774266789973e+02  6.9473912245436861e+02  6.8354546186050311e+02  9.4689275574711019e+02  9.5283749647618276e+02  9.5547516988766904e+02  9.4422050787797684e