<?xml version="1.0"?>
<VTKFile type="UnstructuredGrid"  version="0.1"  >
<UnstructuredGrid>
<Piece  NumberOfPoints="2690" NumberOfCells="4864">
<Points>
<DataArray  type="Float64"  NumberOfComponents="3"  format="ascii">-5.088592931697332 22.01935177157783 0  -5.676041907174649 21.28202314802457 0  -5.086861035721943 21.52093350000925 0  -5.084772348196925 21.01943138441069 0  -5.677809098850824 21.78238416399057 0  -6.266978074957158 21.54229663392576 0  -9 21.99999999996945 0  -8.409812078582606 21.26654402202615 0  -9 21.49999999997139 0  -9 20.99999999997333 0  -8.410125365912046 21.76652160837799 0  -7.819957348872763 21.53299191878444 0  -9 32.9999999999446 0  -8.41665109403964 32.26648039948843 0  -9 32.49999999994358 0  -9 31.99999999994255 0  -8.416963806764645 32.76648662292207 0  -7.833632047647409 32.53292646974889 0  -5.133950769825995 33.02090369851599 0  -5.633912738956506 32.31704623138437 0  -5.132150684204648 32.5236890221245 0  -5.129900027446177 32.02022528450931 0  -5.635746745086837 32.81758570382158 0  -6.137491871509489 32.61126108534 0  -5.222241118571028 54.01989664218345 0  -5.7944129201248 54.75646590961859 0  -5.792665048728362 54.25730148237042 0  -6.362781410199925 54.49178814214969 0  -5.224327464808278 54.52139862453247 0  -5.226106627176504 55.02008307468729 0  -9 54.99999999998974 0  -8.499512186964003 54.29952269719308 0  -9 54.49999999998872 0  -9 53.99999999998769 0  -8.499791084572152 54.79943796869657 0  -7.999361881356584 54.59890364644458 0  -9 39.99999999995897 0  -8.421964179570459 40.74141441039599 0  -8.421651281705028 40.24141914695506 0  -7.843601956250215 40.48277925212393 0  -9 40.49999999996 0  -9 40.99999999996102 0  -5.167203304999892 41.01845765177939 0  -5.717186463819389 40.28770904169004 0  -5.165415265549505 40.52147757039382 0  -5.16334846395369 40.02079825594107 0  -5.718954739165095 40.78739638404443 0  -6.270718858429128 40.55293965613413 0  -9 55.99999999999179 0  -8.455403615942437 56.74694705382262 0  -8.455128521341678 56.24689321643567 0  -7.910544917484111 56.49378629317283 0  -9 56.49999999999282 0  -9 56.99999999999384 0  -5.230710918344832 56.01898051614448 0  -5.778184801162779 56.76238813580576 0  -5.776470805147232 56.26230506878039 0  -6.321859009879943 56.50322254467935 0  -5.232926318341883 56.5220396387037 0  -5.234701224251904 57.02015185067844 0  -7.506161925955747 43.01096423209187 0  -6.69583904197737 43.12530219937864 0  -7.278761520991187 43.35016333397028 0  -7.051520669166287 43.68937655738486 0  -6.923072974884042 42.78598199866833 0  -6.339709527535852 42.56100854256895 0  -6.684625630142556 49.02073028630254 0  -7.489838943965204 48.90522611995978 0  -6.910375477874346 48.68138633880361 0  -7.136315589383775 48.34197822801423 0  -7.26391781726382 49.24453014138005 0  -7.842908521159486 49.46847784927972 0  -6.677043879044658 46.01946614340381 0  -7.484896167128383 45.90440522820455 0  -6.903571059839988 45.67988897673954 0  -7.130273674283122 45.34041243687343 0  -7.258204330117215 46.24386597094228 0  -7.8390855870922 46.46819337110254 0  -6.579290692013498 7.020130167678731 0  -7.42114917564296 6.904933448546494 0  -6.815390445902866 6.680775203086823 0  -7.051666738709158 6.341424549739886 0  -7.184883897120526 7.244280184896764 0  -7.790199853418324 7.468416692807499 0  -7.48507571602681 30.010841108595 0  -6.663303131869137 30.12502517175162 0  -7.254468120621699 30.34974052067206 0  -7.024026224566167 30.68857131790205 0  -6.893746341721862 29.78606044526798 0  -6.30213248321946 29.56138997459314 0  -6.572170227076044 4.019159110842042 0  -7.416875139352828 4.120672124476025 0  -6.810415534416261 4.354790576459814 0  -7.048521328929198 4.690359641992966 0  -7.178778875839643 3.785064938786864 0  -7.785626360621199 3.551095236280391 0  -6.586611457972199 10.02029798663414 0  -7.426258786015857 10.12143385538486 0  -6.823472846940252 10.35567616756983 0  -7.060186270572908 10.69105567148438 0  -7.189530759062726 9.786075134507231 0  -7.792737552800095 9.551827162700585 0  -6.593952747402362 13.02048420493132 0  -7.430698036179618 12.90521836721623 0  -6.828606046575382 12.68113593324805 0  -7.063434752138487 12.34179363024876 0  -7.195872673112479 13.24458949961582 0  -7.797524122289452 13.46863882815276 0  -6.601346548249543 16.02079716646878 0  -7.435533652599903 15.90531139430085 0  -6.835273559188902 15.68147241883593 0  -7.069381689411529 15.34209668802584 0  -7.201441928798454 16.24461213296894 0  -7.801248506275214 16.46854408389241 0  -6.608995697066494 19.01862929007359 0  -7.440881043811119 19.12012612900842 0  -6.843747678063698 19.35366899679598 0  -7.078317557981196 19.68882681973194 0  -7.206294250920863 18.78490679924617 0  -7.80389969724204 18.55113102153493 0  -6.629106928491498 27.01793456953551 0  -7.453999825487113 27.11969184113982 0  -6.861852953286023 27.35336879794906 0  -7.094441647356393 27.68883153800287 0  -7.221409751624293 26.78411777577504 0  -7.813989903987546 26.5504645239833 0  -8.283139737357631 19.09938859351685 0  -8.043591249759457 18.82522907715179 0  -8.401775237882626 18.27561988474303 0  -8.64135775240833 18.54977971190569 0  -9 17.99999999998495 0  -8.289174993175941 27.09916988994327 0  -8.051650749104294 26.82481972886545 0  -8.406826557810449 26.27521415718741 0  -8.644383126148135 26.54958119939464 0  -9 25.99999999995395 0  -8.280705014601217 15.91226964702799 0  -8.040906811459946 16.19041790567309 0  -8.400794257288856 16.73422845494097 0  -8.640558435413887 16.45610312483002 0  -9 16.99999999998883 0  -5.830813282570721 30.11759544989422 0  -6.066399105969879 29.83947202749425 0  -5.710079054333605 29.29496236175584 0  -5.474486662088825 29.57400079029792 0  -5.11716444299697 29.01935187654232 0  -8.278478278485025 12.91226073822867 0  -8.037932777734266 13.19044573234979 0  -8.398926713340211 13.73432788159461 0  -8.639440850808212 13.45613977607429 0  -9 13.99999999999401 0  -8.276416892115629 10.1000015850471 0  -8.034643703901541 9.825915137273364 0  -8.39620251473254 9.275910474012569 0  -8.638009475580043 9.549996965809743 0  -9 8.99999999999857 0  -8.272117221026944 4.099640943229562 0  -8.028931482523189 3.825384144929057 0  -8.392680194508575 3.275519564681193 0  -8.635883805764893 3.549780368870816 0  -9 2.999999999998668 0  -8.274090734655063 6.912118181305777 0  -8.032077178944366 7.190263608404493 0  -8.395263841080872 7.734214026451505 0  -8.637245149181755 7.456070888007255 0  -9 7.999999999999485 0  -8.303399399097461 45.91187468935488 0  -8.071173432085523 46.19001114995074 0  -8.419710852234457 46.73413260294478 0  -8.651903596292602 46.45599820453894 0  -9 46.99999999997333 0  -8.305674040309947 48.91221946265895 0  -8.074218841242306 49.19035989365312 0  -8.421629462662018 49.73419321887285 0  -8.653049660984317 49.45608116518897 0  -9 49.99999999997949 0  -5.874981205393812 43.1178345906848 0  -6.107269967685768 42.83941843327744 0  -5.755906816241611 42.29431291457804 0  -5.523620633039779 42.57375306572532 0  -5.171202664010452 42.01855136232546 0  -5.805418131830217 23.94024364060251 0  -6.048980748858735 24.20588192202082 0  -5.696716666147334 24.74998644630513 0  -6.292394784450503 24.47158611552589 0  -5.453280493804955 24.48526534953563 0  -5.101038127906363 25.01920103397135 0  -8.312658381189511 52.08910004479611 0  -8.07689983378333 51.82334138622675 0  -8.420316766663948 51.27887356598288 0  -7.84099711255371 51.55763794013279 0  -8.656115548424811 51.54463111531482 0  -9 50.99999999998153 0  -5.853351732460636 38.10733956156724 0  -6.091590071906174 37.83738354831939 0  -5.740599138972715 37.29760414050504 0  -6.329972467696823 37.56748544896583 0  -5.502351986908619 37.56867092835795 0  -5.150285475393716 37.0176867703526 0  -5.84257246158352 34.9400586288458 0  -6.083328845449474 35.20555727747552 0  -5.735209476853251 35.74941701048521 0  -6.323937102734498 35.47111763802195 0  -5.494566785547842 35.48497613336581 0  -5.146500621950972 36.0182844183073 0  -7.941497016507419 50.50918359678644 0  -7.891214991623391 51.03343558407855 0  -8.470897547669351 50.75454046070315 0  -6.223637490387849 36.51910295374822 0  -6.276826262818553 37.04317441163862 0  -5.687089134800062 36.77181288219401 0  -6.273758045698721 35.99497861499415 0  -5.685295050852883 36.27158397834484 0  -6.054010216670841 25.28097866832447 0  -6.173162306748812 24.87632194853603 0  -5.577711171793495 25.1536313803793 0  -8.052836957975309 25.75277279601898 0  -7.933363435935786 26.15161793307595 0  -8.526480481535311 25.87638967659165 0  -7.014327456461355 34.39002581577067 0  -6.668928521630802 34.93068634124391 0  -6.917481097726389 35.25332687747651 0  -7.262906416885659 34.71282907617708 0  -7.511310025212429 35.03559749653842 0  -7.162569845103323 52.63818698746071 0  -7.501569956285878 52.0980177047454 0  -7.257685704412144 51.77567806092783 0  -6.918706118369045 52.31590863363355 0  -6.674658972507934 51.99368529304172 0  -7.023424532050196 38.63809568921869 0  -6.676902700669551 38.10290310904995 0  -6.923145925385127 37.77647239388637 0  -7.269648786785471 38.31183865102607 0  -7.516046491211874 37.98553812164394 0  -6.99097946865078 23.39012899390418 0  -6.641487041115925 23.93092873226051 0  -6.892941713250766 24.25365815461101 0  -7.24246362555623 23.71299559025377 0  -7.493774553857212 24.03580780740891 0  -7.903447843817876 17.50907520600347 0  -7.853642870594065 18.03013230645569 0  -8.45186966571274 17.75448505241427 0  -7.852374678237118 16.98882022738638 0  -8.451578432554474 17.25456683402692 0  -7.893288502232127 8.50928171089376 0  -7.842987312507049 9.03055631578799 0  -8.446782029137188 8.754642862307799 0  -7.934101285317876 2.423661955890624 0  -7.859808960103292 2.987354220777502 0  -8.46718002737853 2.711857983978503 0  -7.84177164959395 7.988854274392811 0  -8.446503191135923 8.254634340808865 0  -7.892231007178705 49.98884223123066 0  -8.470598186481944 50.25462259181542 0  -6.152950434382655 41.61185281185513 0  -6.246380311229695 42.086
[...]
<PointData  Scalars="f_29"> 
<DataArray  type="Float64"  Name="f_29"  format="ascii">3.6873735667093263e+02  3.5596903181770290e+02  3.6005670486586973e+02  3.5139372877137492e+02  3.6459812700143272e+02  3.6047559890491908e+02  3.6858383368954031e+02  3.5582150118522787e+02  3.5990104724860112e+02  3.5123073849612240e+02  3.6445281384048150e+02  3.6038722881571744e+02  5.6035015655202710e+02  5.4726066650467942e+02  5.5144366224984731e+02  5.4255243379278954e+02  5.5611402122833908e+02  5.5194087016889750e+02  5.6045780495729878e+02  5.4800005746005445e+02  5.5159275157733293e+02  5.4275581611961400e+02  5.5683588220045056e+02  5.5322180307981921e+02  9.4010216246313234e+02  9.5389644384466726e+02  9.4459407255571443e+02  9.4899203479162077e+02  9.4944102467534788e+02  9.5882299644113596e+02  9.5864611767066776e+02  9.4556483991559253e+02  9.4933393328022419e+02  9.4002237070914884e+02  9.5486475408436343e+02  9.5110236449535012e+02  6.8478176999382390e+02  6.9817261845336736e+02  6.8915764458418425e+02  6.9346922056197604e+02  6.9385224713706350e+02  7.0291297967715172e+02  7.0306077012544347e+02  6.8983337393612328e+02  6.9401109753417791e+02  6.8495029479337541e+02  6.9886209529832342e+02  6.9465598090967899e+02  9.7720197570267794e+02  9.9114345116450727e+02  9.8181051475572781e+02  9.8637205245925770e+02  9.8654896790903194e+02  9.9594505641876924e+02  9.7734612844876790e+02  9.9125360979449999e+02  9.8192656952837956e+02  9.8644303910573035e+02  9.8668361336472105e+02  9.9608347408227644e+02  7.3898451310134158e+02  7.4096480103041768e+02  7.4508537728390490e+02  7.5119352194553142e+02  7.3487137571769642e+02  7.3075832244590049e+02  8.4802037724230672e+02  8.4600118115600992e+02  8.4183928266766429e+02  8.3566326488613026e+02  8.5218830626164890e+02  8.5635113421457584e+02  7.9334483850055528e+02  7.9133681527394367e+02  7.8721327000101462e+02  7.8108332668461321e+02  7.9747570618447196e+02  8.0160308370331700e+02  1.1511400749407284e+02  1.1327497362765293e+02  1.0951209201100210e+02  1.0391361592295246e+02  1.1888288765778546e+02  1.2264706271694469e+02  5.0749088850681284e+02  5.0941573529355918e+02  5.1341962070295176e+02  5.1935662154234842e+02  5.0349749223325625e+02  4.9950493972926512e+02  6.5560465214185129e+01  6.7307932067764099e+01  7.1105484290490821e+01  7.6652616185279840e+01  6.1769071764603432e+01  5.7978131038449384e+01  1.6505395694002092e+02  1.6682054755802466e+02  1.7068130635841771e+02  1.7631004525900153e+02  1.6119813569207383e+02  1.5734593929118381e+02  2.1534052666381407e+02  2.1347272183688352e+02  2.0965598550880367e+02  2.0397484405471656e+02  2.1916230902100966e+02  2.2298031522476518e+02  2.6598680974442749e+02  2.6411253252456800e+02  2.6025977894633894e+02  2.5453771000746809e+02  2.6984540099380507e+02  2.7369880343561499e+02  3.1705773399832304e+02  3.1888478105126472e+02  3.2282709459211986e+02  3.2860213408655602e+02  3.1312583544018008e+02  3.0919138645618580e+02  4.5510735277703441e+02  4.5696685680144418e+02  4.6097755517113490e+02  4.6685165128826463e+02  4.5110588981600733e+02  4.4710040088952155e+02  3.1860179982560362e+02  3.1389789074881423e+02  3.0455708897783933e+02  3.0924654948864907e+02  2.9995136150094368e+02  4.5668319166618897e+02  4.5189191564066425e+02  4.4237608449159546e+02  4.4715342710256022e+02  4.3767093196209237e+02  2.6430483877111254e+02  2.6900058407459989e+02  2.7824851972942901e+02  2.7354529163491861e+02  2.8275447630608721e+02  5.0916726510333251e+02  5.0433911366978475e+02  4.9480700640749990e+02  4.9958399494838562e+02  4.9013683977229658e+02  2.1365791162106171e+02  2.1831782647533163e+02  2.2748918524289360e+02  2.2283240766275506e+02  2.3197823067342540e+02  1.6653593972614715e+02  1.6194202996105059e+02  1.5281229299604385e+02  1.5739284282933522e+02  1.4830918070743394e+02  6.7033753599103321e+01  6.2506273688437396e+01  5.3508642267353594e+01  5.8032885193355384e+01  4.9085666704178131e+01  1.1345685787582812e+02  1.1805081359343117e+02  1.2709271423575633e+02  1.2249234321106002e+02  1.3149467522394733e+02  7.9154536860022415e+02  7.9657289973038564e+02  8.0647685982246139e+02  8.0145187954636822e+02  8.1133043002101294e+02  8.4621358776799616e+02  8.5128109389439692e+02  8.6126605895461626e+02  8.5619112174942939e+02  8.6613882102666878e+02  7.4071286063524860e+02  7.3573835946646875e+02  7.2591967657575162e+02  7.3084278100414360e+02  7.2111716586840680e+02  4.0164025241232582e+02  4.0627505246930730e+02  4.1567564605243365e+02  4.1090770289025579e+02  4.1100177167893844e+02  4.2043028310276753e+02  9.0461778677446955e+02  8.9969596789225784e+02  8.8971259903770624e+02  8.9477289715970437e+02  8.9461958571136040e+02  8.8468019203047891e+02  6.5064407107951661e+02  6.4587286328821267e+02  6.3626372451825534e+02  6.4109852955923463e+02  6.4097541502221941e+02  6.3146771627065198e+02  5.9425594922209154e+02  5.9901444421955409e+02  6.0865690343303686e+02  6.0377152567705343e+02  6.0385113747762819e+02  6.1351186459572250e+02  8.7547137449419245e+02  8.8512280400040640e+02  8.8004648329153599e+02  6.2245898762414924e+02  6.3177766732962539e+02  6.2694586866806844e+02  6.1310510927392102e+02  6.1801158210614642e+02  4.2494531488805262e+02  4.1792095344904192e+02  4.2272189390636100e+02  4.3326517066016419e+02  4.4018267968907151e+02  4.3544553654900221e+02  5.8467871229947127e+02  5.9421479320942285e+02  5.9996863508952003e+02  5.9042197732348814e+02  5.9616798012267941e+02  9.1464433580067009e+02  9.0470053527411096e+02  8.9872616522710439e+02  9.0866096965466159e+02  9.0268267735605139e+02  6.6028172385536334e+02  6.5067575452514848e+02  6.4487684616115189e+02  6.5447150711692984e+02  6.4866404429618956e+02  3.9229772831030652e+02  4.0159187459033365e+02  4.0719502526256213e+02  3.9789092534846418e+02  4.0348594020333451e+02  2.9141091108490741e+02  3.0030136407201127e+02  2.9565082136910223e+02  2.8254608943505150e+02  2.8711012727852727e+02  1.3996541664850477e+02  1.4865672377329201e+02  1.4410641094463011e+02  3.9474971674479498e+01  4.8727633971713253e+01  4.4255442976130105e+01  1.3129792115841980e+02  1.3575685004695131e+02  8.6590241482256624e+02  8.7083155053948985e+02  7.1370323045119483e+02  7.2222768336705985e+02  7.1739525334475786e+02  4.1502303542611520e+02  4.1296800322147499e+02  4.0925042898306305e+02  8.8794255901381939e+02  8.9135731804802890e+02  8.9531079215466252e+02  6.3446925514405291e+02  6.3778526644147507e+02  6.4156181505049199e+02  6.1038442592574120e+02  6.0708073444326681e+02  6.0327114264022464e+02  4.8549058311474329e+02  4.9249521792614985e+02  4.8780032162856395e+02  7.5186635560202001e+02  7.4129421996294593e+02  7.5153272911421175e+02  8.3497877022006014e+02  8.4565646421621261e+02  8.3532219383288179e+02  7.8039478286292569e+02  7.9099242597613011e+02  7.8074027896089547e+02  1.0328283747322214e+02  1.1295737229585647e+02  1.0360031954328028e+02  7.7196625474284531e+01  6.7581878120989401e+01  7.6927034680902523e+01  5.2014663952487422e+02  5.0980602570604714e+02  5.1975554723608843e+02  1.7685626073417964e+02  1.6709596603565311e+02  1.7658542559373743e+02  2.0333304827703660e+02  2.1315005999394410e+02  2.0365594546898797e+02  2.5389946115611522e+02  2.6379112608198579e+02  2.5421981255184278e+02  3.2931018184681079e+02  3.1924205200468151e+02  3.2896082667312527e+02  4.6743623380762449e+02  4.5726062426384249e+02  4.6714658407378050e+02  4.4145997125275466e+02  4.4427974097722603e+02  4.4828169131408816e+02  3.0296312840121669e+02  3.0607719490813543e+02  3.1000796510280236e+02  2.7984029228992847e+02  2.7677116105344811e+02  2.7291104791769965e+02  4.9359824165092249e+02  4.9655393221021041e+02  5.0054075829964228e+02  2.2888925244327791e+02  2.2593560299025435e+02  2.2211229023500118e+02  1.5138823680713674e+02  1.5436741766287912e+02  1.5821791925688285e+02  5.4264696411611645e+01  5.6122154096921832e+01  5.9910876187261493e+01  1.2865707053461992e+02  1.2565360972595010e+02  1.2188234147412761e+02  7.2465445454495352e+02  7.2770765257706626e+02  7.3181672799536000e+02  8.6297664671099199e+02  8.5966555384538253e+02  8.5549578082179517e+02  8.0797389932723377e+02  8.0478922760494595e+02  8.0065618003954023e+02  7.0418068489697691e+02  7.0838025261991561e+02  9.6805216970465426e+02  9.5852480678944198e+02  9.6339361336230263e+02  9.6797384189384150e+02  9.5953700896549844e+02  9.6330512676622106e+02  9.7717172060611483e+02  9.7258676142650597e+02  9.7724830515945428e+02  9.7269861121676206e+02  2.3102533323530942e+01  3.3755167926151529e+01  2.5569683797348951e+01  2.8032805612283816e+01  3.1282097822960374e+01  1.0376840032864566e+03  1.0377412386371147e+03  1.0449071293973168e+03  1.0377951352584885e+03  1.0448545583217244e+03  1.0520297495715324e+03  1.0376869765174968e+03  1.0377456155393315e+03  1.0449099940107610e+03  1.0448568275997156e+03  1.0520297495715324e+03  1.0086671173426332e+03  9.9751493768547755e+02  1.0022890323038307e+03  1.0087185684318106e+03  9.9758361128800311e+02  1.0023813869632266e+03  1.2632465928258080e+01  1.2683142185400911e+01  6.3626729879144159e+00  1.2730244274089527e+01  6.3152982594130505e+00  0.0000000000000000e+00  3.7444541680163252e+02  3.6806615937554398e+02  3.7574320856685836e+02  3.6676885297262692e+02  3.7315602092672799e+02  5.6635294487697411e+02  5.5980677231339962e+02  5.6767183552863867e+02  5.5848836747934524e+02  5.6504153449141882e+02  6.7881066835106810e+02  6.8549011307729302e+02  6.7751426199905279e+02  6.8678189315694817e+02  6.8009629029676739e+02  9.3520081285958292e+02  9.4210067136971725e+02  9.3945646294659002e+02  9.3257444406900311e+02  9.2993495036549007e+02  1.2483173739926690e+01  1.2608391726947479e+01  6.3638763890965668e+00  6.2382410805579251e+00  0.0000000000000000e+00  3.4664293493426459e+02  3.5356248838596684e+02  3.4904380857129496e+02  5.3774268728468928e+02  5.4484088619556815e+02  5.4016128310411023e+02  7.0771781839140851e+02  7.0059189115466722e+02  7.0530230697562979e+02  9.5850853564677050e+02  9.6804607342707800e+02  9.6802785246730195e+02  9.7719670666880393e+02  9.6800526210943872e+02  9.7723134609114811e+02  9.5956236043174476e+02  7.0331457376409719e+02  7.1283728797229912e+02  7.1197238540085925e+02  3.5689442252286676e+02  3.5863967548987176e+02  3.6632067109585347e+02  3.5868388999526741e+02  3.6810701466386070e+02  5.4715346243290946e+02  5.4954595396791433e+02  5.5741247543740292e+02  5.5018825532776020e+02  5.6044287014502083e+02  9.4589753698187008e+02  9.4744800949363037e+02  9.3791348852416445e+02  6.9721166887850734e+02  6.9593478626832109e+02  7.0459313019268404e+02  6.8607605063796370e+02  6.8735823276559768e+02  6.9534340995764410e+02  9.8474620320919826e+02  9.8559655969561572e+02  9.7638509794861000e+02  9.8556123016136291e+02  9.9371035053837784e+02  9.9289456456400239e+02  1.0010424303703843e+03  9.4850094054820875e+02  9.5695944735663795e+02  9.9374312148299884e+02  3.7548772474299210e+02  3.6798728650505495e+02  3.7561532055258914e+02  5.6741555565599299e+02  5.6032100769929593e+02  5.6754409139771678e+02  6.7785959104124788e+02  6.8625703387510873e+02  6.7769604694551481e+02  2.9718881441518903e+02  2.8562097098824563e+02  1.4567833109286880e+02  4.6870662331647864e+01  1.3430700361764801e+02  8.6921966404951058e+02  9.3960890249449596e+02  9.3163326706738587e+02  9.3332120727691506e+02  9.4220769823602200e+02  2.9145551027162918e+02  2.8564592823317520e+02  2.9143542220784093e+02  2.9720802139119189e+02  1.4001481885942496e+02  1.3433410693733634e+02  1.3999230294218160e+02  4.0902405769593898e+01  4.7583462971534480e+01  4.0191793382025693e+01  1.4570026059610711e+02  8.7551360075288494e+02  8.6924285872026405e+02  8.7549467599932905e+02  3.4098304031463653e+02  3.5177556813729086e+02  3.4893773964309440e+02  3.4381816085390744e+02  5.3204396700194138e+02  5.4245031856800631e+02  5.3959737927821288e+02  5.3489678932980905e+02  7.0246006432718229e+02  7.0984251503489429e+02  7.1917404854313611e+02  7.1831382016235978e+02  1.0260976330534882e+03  1.0138273203150854e+03  1.0225435770513050e+03  1.0189909000430530e+03  1.0173810984409824e+03  1.0260989124074713e+03  1.0138449053488575e+03  1.0225463999988419e+03  1.0174010733882666e+03  1.0048775898348281e+03  1.0048501147903630e+03  2.3788908619928836e+02  2.3042977299590081e+02  2.3496139662465006e+02  8.1769782969614903e+02  8.0964506015080690e+02  8.1454117337102684e+02  8.8170843650223458e+02  6.1641220727122550e+02  6.2846024215890395e+02  8.8172693215761251e+02  6.2240232952140104e+02  6.1639325892497345e+02  6.2242765560150383e+02  6.2843602584266080e+02  4.2904965450097995e+02  4.3736285705298309e+02  4.3525484047897390e+02  4.3115660191249663e+02  5.0753023036758123e+02  4.9878138398057627e+02  5.0836062967995929e+02  2.6584931470312870e+02  2.6507910105649785e+02  2.7430868268934364e+02  3.1695856175006048e+02  3.0844142958749251e+02  3.1778220705626148e+02  4.5501249415933319e+02  4.4633237084662613e+02  4.5585007216879228e+02  6.5452105469820935e+01  5.7255164483349034e+01  6.6245230947545494e+01  1.1496526115365930e+02  1.1421238177190332e+02  1.2323793656040114e+02  1.6492575324975110e+02  1.5660462409013400e+02  1.6573281994347633e+02  2.1519048966271089e+02  2.1442592827305319e+02  2.2358793530471442e+02  7.9320647219125533e+02  7.9237783382771329e+02  8.0227144407639730e+02  8.4788450342946726e+02  8.4705122676580038e+02  8.5701807728025426e+02  7.3902541949116335e+02  7.3001809724649581e+02  7.3988130583867098e+02  3.5109399205104660e+02  3.4314218055423117e+02  3.4529056277983693e+02  5.4193071351071819e+02  5.3437707389431830e+02  5.3670255201016073e+02  4.7940509769058394e+02  4.7375915129797210e+02  4.8008738751722325e+02  4.7307773249296395e+02  4.7872381566263704e+02  7.6550475984765785e+02  7.5900513852420909e+02  7.6613338963113029e+02  7.5836703037053326e+02  7.6488944130020354e+02  7.6676594042852412e+02  7.7326179671780608e+02  7.7389769809349025e+02  7.6740089343632337e+02  4.8954053572283692e+02  4.8278537449483741e+02  4.8684243615548030e+02  3.5283733470401444e+02  5.4496164785353369e+02  3.4465307462773687e+01  3.7087731184503059e+02  5.6270377576258693e+02  9.3765259079326108e+02  6.8243463913176629e+02  3.4827246331676156e+02  5.3974319528402225e+02  4.1997830271235875e+02  4.2203524318134725e+02  4.2699732473578092e+02  5.8313689468121390e+02  5.9343618982473015e+02  5.8390961278631755e+02  9.1623799784167795e+02  9.0549696342433435e+02  9.1544615962637204e+02  6.6167035423075686e+02  6.5136689827738667e+02  6.6098021215284166e+02  3.9100209235062169e+02  4.0093780884681968e+02  3.9165187620372279e+02  1.9009193917696354e+02  1.9672699933303022e+02  1.9012509442860977e+02  1.9669410113371623e+02  1.9005832009556215e+02  1.8348866838646654e+02  1.8345478932568054e+02  9.0235305458970885e+01  9.6772481324314796e+01  9.0265626096671880e+01  9.6741828251018305e+01  9.0204610224957804e+01  8.3728471954059629e+01  8.3698223154087643e+01  1.0100158023454571e+03  4.0309432559045604e+02  4.0237945870472180e+02  4.1171970771320605e+02  9.0303419891145495e+02  8.9384418374378868e+02  9.0382624420515708e+02  6.4915766473909878e+02  6.4025206335426378e+02  6.4990905971171571e+02  5.9574278354689545e+02  5.9501039161306687e+02  6.0458989303870896e+02  4.9072418698437843e+02  4.8540394861657796e+02  4.8472279399870172e+02  7.7688505370899202e+02  7.7150919149958202e+02  7.7088175012125703e+02  7.5539093092777682e+02  7.6076085505260812e+02  7.6139376523529870e+02  2.4183451152432363e+02  2.3338741741389836e+02  2.3536002003789861e+02  2.3986495327133846e+02  8.2194898241045735e+02  8.1283418782202193e+02  8.1495924740504154e+02  8.1982641991289779e+02  0.0000000000000000e+00  0.0000000000000000e+00  6.3643161004154845e+00  1.0520297495715324e+03  1.0520297495715324e+03  1.0449105292943959e+03  1.0520297495715324e+03  0.0000000000000000e+00  3.7212595290218894e+02  5.6395376820843194e+02  9.3667585802062331e+02  6.8142925898654676e+02  1.0318880135528748e+03  1.0319437369798447e+03  1.0318911300631521e+03  1.0319455244074393e+03  4.9869376622957368e+01  4.2220053068806173e+01  4.9546465517111940e+01  4.9246703998081628e+01  4.2555203457093441e+01  3.5224612820169170e+01  3.8324239911480089e+02  3.8337263270150163e+02  5.7527498977178732e+02  5.7540396756127586e+02  6.6976374531177066e+02  6.6959055048685764e+02  9.2477416695078830e+02  9.2308555573915157e+02  3.3729512731261019e+02  3.3514441812803062e+02  5.2842062576970557e+02  5.2609807941881365e+02  3.2664129911563712e+01  3.3977507724420654e+01  4.0939251012888022e+01  1.7863753927152974e+01  1.7918136022770970e+01  2.4589401335493659e+02  2.4786264042392150e+02  8.2633756444240066e+02  8.2845955783815816e+02  2.2304513609750440e+01  1.7390489227049883e+01  1.7515707710665541e+01  2.4341086311595862e+02  2.5142322428222172e+02  2.4897899959694490e+02  8.2366088917102627e+02  8.3230862170253522e+02  8.2966865498760069e+02  3.8730302564680647e+02  3.8152016925444309e+02  3.8022787561727461e+02  5.7977360377418972e+02  5.7371997424735832e+02  5.7240541632347686e+02  6.6518496575692154e+02  6.7134709691766159e+02  6.7263987607943352e+02  9.2033750767032643e+02  9.2513628335717283e+02  9.2775940912473811e+02  3.3966843286172076e+02  3.3168291184934236e+02  3.3401898521709336e+02  5.3090889118018492e+02  5.2263746174807125e+02  5.2510548858610628e+02  3.1964357181249454e+01  2.3789423071214312e+01  2.4468820537382165e+01  8.2973184391043560e+02  8.2024335378312207e+02  8.1635138935060900e+02  8.1076061750202609e+02  8.2584117186755986e+02  1.4005975038572888e+02  1.4456237734065743e+02  1.4910998137056455e+02  1.3551502679071260e+02  1.3101942190858375e+02  2.9981716428583900e+02  2.9102917416676081e+02  2.8685054582720932e+02  2.8225257407081443e+02  2.9563665800876925e+02  1.8185903517840612e+02  1.9011916488391503e+02  1.9425603881576851e+02  1.9839316717721184e+02  1.8599157877268365e+02  8.2115710754066583e+01  9.0257823138431704e+01  9.4335401522260142e+01  9.8412243041286203e+01  8.6190290666508048e+01  2.4904664681632846e+02  2.3665291286708839e+02  2.4544173211816187e+02  2.4025933162992891e+02  2.3147738692527426e+02  3.3204447619053997e+02  3.3651702595418698e+02  3.3933874992172923e+02  5.2339006654975822e+02  5.2771852380889629e+02  5.3056284395769774e+02  7.2296023779510642e+02  7.1746349625509697e+02  7.1534043815735731e+02  4.1867307461993533e+02  4.2386217151583827e+02  4.2596427744219466e+02  4.7180515310230180e+02  4.7594855943471657e+02  4.7864656952243155e+02  4.3174054786171030e+02  4.3378817578867813e+02  4.3852694095618529e+02  6.1311527663571940e+02  6.2715840108137638e+02  6.1775748099995292e+02  6.2251343978013074e+02  6.3191853125458863e+02  8.8515584456628426e+02  8.7535810281884199e+02  8.7054022135650655e+02  8.6557404910130970e+02  8.8033569275564935e+02  3.1625455274476685e+01  3.8067954426004334e+01  3.2395371819698164e+02  3.2632392336897158e+02  4.6205880078980050e+02  4.6993356520464630e+02  4.6455395130889571e+02  4.7241296166724817e+02  1.7169510019433031e+02  1.7924300017601416e+02  1.7407859408438210e+02  1.8160297325668648e+02  7.4629056018243659e+02  7.5450435427359139e+02  7.4889071412420867e+02  7.5708729414944196e+02  2.0849507744850709e+02  2.0086863725684623e+02  2.0602785910700038e+02  1.9843237273619553e+02  8.4059677160088097e+02  8.3792144338557875e+02  7.8596979783566439e+02  7.7774042311451910e+02  7.8331293905844882e+02  7.7512294182014261e+02  1.0836982270880083e+02  1.0085559145036986e+02  1.0593892432110199e+02  9.8456976032443350e+01  7.2114062925223180e+01  7.9550894912479166e+01  7.4464989579532144e+01  8.1876813863670748e+01  2.5910261114078054e+02  2.5662216165817125e+02  5.1465728424776989e+02  5.1710873401301239e+02  5.8614608642414339e+02  5.8062302918402122e+02  5.7813644346829574e+02  5.8869353277893606e+02  6.5880926620529908e+02  6.6437618741402741e+02  6.6704717128607831e+02  6.5615352087088377e+02  9.1303636477250848e+02  9.1886476993001872e+02  9.2144425709746781e+02  9.1042516856445764e