<?xml version="1.0"?>
<VTKFile type="UnstructuredGrid"  version="0.1"  >
<UnstructuredGrid>
<Piece  NumberOfPoints="2690" NumberOfCells="4864">
<Points>
<DataArray  type="Float64"  NumberOfComponents="3"  format="ascii">-5.000945224443434 22.00019303123022 0  -5.603902053928292 21.26269544090208 0  -5.000925724152252 21.50020891632721 0  -5.000904428967789 21.00019457941304 0  -5.603920231100491 21.76269884504874 0  -6.206896891024922 21.52517316449175 0  -9 21.99999999996945 0  -8.397012943620535 21.26254050644215 0  -9 21.49999999997139 0  -9 20.99999999997333 0  -8.39701618086437 21.76254026854194 0  -7.794029288195316 21.5250800370043 0  -9 32.9999999999446 0  -8.397084311562253 32.26253984359908 0  -9 32.49999999994358 0  -9 31.99999999994255 0  -8.397087553441823 32.76253989552791 0  -7.794172027354954 32.52507933974582 0  -5.001419111151864 33.00020900115976 0  -5.520909055023451 32.29656492944689 0  -5.001398730621389 32.50023673298391 0  -5.001377029602257 32.00020239196921 0  -5.52092768942131 32.79657028626409 0  -6.040437819114609 32.59290144621741 0  -5.002325369120748 54.00020039293054 0  -5.605124722608252 54.73769081764415 0  -5.605106865466241 54.23769918633964 0  -6.20788670359964 54.47516891454957 0  -5.002345464406148 54.50021410984603 0  -5.002365358259726 55.00020179014111 0  -9 54.99999999998974 0  -8.470243563409936 54.29614813885535 0  -9 54.49999999998872 0  -9 53.99999999998769 0  -8.470246329575733 54.79614732682943 0  -7.94049044362584 54.59229490731035 0  -9 39.99999999995897 0  -8.397139317174714 40.7375392562716 0  -8.397136076619946 40.23753928883116 0  -7.794275234518996 40.47507801450882 0  -9 40.49999999996 0  -9 40.99999999996102 0  -5.001763664635433 41.00018528437411 0  -5.57791810119691 40.26801809723403 0  -5.001743498113965 40.50021511208929 0  -5.001722961272582 40.00020913242793 0  -5.577936359224528 40.76801489338489 0  -6.154111144865152 40.53581045285168 0  -9 55.99999999999179 0  -8.422059085454254 56.74336164623822 0  -8.422056341193084 56.24336114176947 0  -7.844115561653816 56.4867222541853 0  -9 56.49999999999282 0  -9 56.99999999999384 0  -5.002410792488106 56.00019159093721 0  -5.580379919755645 56.743517044905 0  -5.580362078940702 56.24351624027733 0  -6.158311221633031 56.48681726388178 0  -5.002431948604485 56.50022057332504 0  -5.002451773260292 57.00020232653372 0  -7.438222779523051 43.00010968690118 0  -6.59073778793721 43.10834168512171 0  -7.199834626941337 43.33746538374002 0  -6.961448211660871 43.67482126594162 0  -6.8291242920974 42.77098479666425 0  -6.220022731196342 42.5418598676062 0  -6.563785084072974 49.00020717103769 0  -7.4112162221392 48.89196340588443 0  -6.802156353534381 48.66284998390331 0  -7.040529367039182 48.32549219156721 0  -7.172843305101465 49.22932016285865 0  -7.781898532101894 49.45843466683073 0  -6.563706130790785 46.00019452122073 0  -7.4111647851177 45.8919553108633 0  -6.802085162798426 45.66283513292689 0  -7.040465942031257 45.32547674890343 0  -7.172784137438794 46.22931357489969 0  -7.781859108935235 46.45843186926924 0  -6.56268355121002 7.000202063933151 0  -7.410497943189509 6.891961161966371 0  -6.801162703468455 6.66284476069775 0  -7.03964359831102 6.325487501125667 0  -7.172017186386373 7.229318408907607 0  -7.781347795565969 7.458434580403779 0  -7.438004202711928 30.00010837798609 0  -6.590400576975232 30.108338860324 0  -7.199582686809771 30.33746108642486 0  -6.961162912856569 30.67481314115412 0  -6.828820459562627 29.77098551352011 0  -6.219633643892029 29.54186367864893 0  -6.562606182266958 4.00019233731478 0  -7.410451503819258 4.108295900546702 0  -6.801108663165293 4.337512351279052 0  -7.039609434271934 4.674831691659584 0  -7.171950842856138 3.770976138714341 0  -7.781298111123684 3.541761256379245 0  -6.562762046983263 10.00020393951032 0  -7.410552777310149 10.10830365362174 0  -6.801249411215583 10.33752135051217 0  -7.039735045965319 10.67483874793938 0  -7.172067035832804 9.770986439074138 0  -7.78137502671161 9.541768721587536 0  -6.562840684463984 13.00020563443738 0  -7.410600364368801 12.89196404161247 0  -6.80130439951972 12.66284839303505 0  -7.03976984753286 12.32549121606764 0  -7.172135028189779 13.22932154173085 0  -7.781426360617192 13.45843683110716 0  -6.56291948798831 16.00020884656374 0  -7.410651734223627 15.891964952266 0  -6.801375465300437 15.66285182245558 0  -7.039833184645632 15.32549428427697 0  -7.172194116303605 16.22932173074375 0  -7.781465747143877 16.45843581480552 0  -6.562998170819323 19.00018659527628 0  -7.410706773810619 19.10829017615485 0  -6.801462464536864 19.33750065838266 0  -7.039925009676066 19.674815914767 0  -7.172244120411831 18.77097433715115 0  -7.78149307502582 18.54176150646407 0  -6.563207872161408 27.00017938798667 0  -7.41084351468874 27.10828563160027 0  -6.801651633667096 27.33749744426218 0  -7.040093646568458 27.6748157719623 0  -7.172401379299829 26.77096618600348 0  -7.7815979124395 26.54175465026035 0  -8.269279664483205 19.09395575873413 0  -8.025387095274846 18.81785831983237 0  -8.390744761199999 18.27088130391082 0  -8.634637680088561 18.54697874072231 0  -9 17.99999999998495 0  -8.26934253357569 27.09395347478112 0  -8.025470948607232 26.81785408674252 0  -8.390797180219931 26.27087714474341 0  -8.634669115011036 26.54697670057634 0  -9 25.99999999995395 0  -8.269254581498751 15.90616115794324 0  -8.025359438844928 16.18229859896865 0  -8.390734649332465 16.72921745500376 0  -8.63462944324541 16.45308025036772 0  -9 16.99999999998883 0  -5.731928638880843 30.09413758489175 0  -5.975780368021411 29.8180003513649 0  -5.610442110304073 29.27107382145341 0  -5.366589733994224 29.54722020979898 0  -5.001245987066857 29.00019265498197 0  -8.269230966064788 12.90616109673528 0  -8.025327938233644 13.18229892241852 0  -8.390714957736687 13.72921850183124 0  -8.634617634616795 13.45308064343088 0  -9 13.99999999999401 0  -8.269208862651498 10.09396206859484 0  -8.025292668307669 9.817865404741315 0  -8.390685742240555 9.270884326676748 0  -8.634602284376044 9.546980992536396 0  -9 8.99999999999857 0  -8.269162446938937 4.093958399701725 0  -8.025230945770735 3.817859995683752 0  -8.390647608244745 3.270880338653985 0  -8.634579292605867 3.546978785323155 0  -9 2.999999999998668 0  -8.269183888746134 6.906159655269126 0  -8.025265121036441 7.182297079210559 0  -8.390675668338778 7.729217349827645 0  -8.634594080397152 7.453079946435476 0  -9 7.999999999999485 0  -8.269490477915948 45.90615696038888 0  -8.025674067324468 46.18229418915206 0  -8.390931334999921 46.729216286122 0  -8.634747392444904 46.45307907677716 0  -9 46.99999999997333 0  -8.26951411659625 48.90616033423141 0  -8.025705598920121 49.18229760816491 0  -8.390951037504832 49.72921687152017 0  -8.634759209663537 49.45307988333911 0  -9 49.99999999997949 0  -5.732386075507204 43.09413997602627 0  -5.97620362114254 42.81799978350658 0  -5.610916427065219 42.27106721654672 0  -5.367098262354264 42.54721757717371 0  -5.00180547635397 42.0001849358946 0  -5.726969294927192 23.91656260822126 0  -5.975677412439459 24.18427743774793 0  -5.612728235630214 24.72613887519548 0  -6.224384019230492 24.45199287595855 0  -5.364020803206784 24.45843336259175 0  -5.001077042456206 25.00019234118854 0  -8.274279687694438 52.08373066575318 0  -8.025652938752993 51.8160147388588 0  -8.388510585610582 51.27415021469433 0  -7.777024765411381 51.54829936410885 0  -8.637137740089431 51.54186612927769 0  -9 50.99999999998153 0  -5.727468281734364 38.08391268792416 0  -5.976120942628476 37.81615470680899 0  -5.613185079665051 37.27433651286229 0  -6.224775118863176 37.54839751320507 0  -5.364531711699257 37.54210548565105 0  -5.001589992717456 37.00017623314251 0  -5.727356837186402 34.91656064515443 0  -5.976035538549598 35.18427409449383 0  -5.613129425413139 35.72613317622156 0  -6.224712729960676 35.45198813855508 0  -5.364451299076868 35.45843037910546 0  -5.001550852818432 36.00018390553601 0  -7.884388769465951 50.50026545694111 0  -7.830706470431234 51.02428265618894 0  -8.442195877170269 50.75013221167245 0  -6.117496283920189 36.5001912740608 0  -6.171135949631244 37.02429316327046 0  -5.559542656974756 36.75021833169462 0  -6.171104264215461 35.97608853354451 0  -5.559524462393607 36.25021650944652 0  -5.977519739310366 25.26017088295575 0  -6.100951387766372 24.85608234419648 0  -5.489298428193578 25.13021715965208 0  -8.027767791025052 25.74588478309522 0  -7.90468232327621 26.14381971047581 0  -8.513884560813979 25.87294242297765 0  -6.943089476075679 34.37604417027258 0  -6.583898986796855 34.91401719575791 0  -6.840770742353389 35.23854664817432 0  -7.199961465197026 34.70057519694824 0  -7.456831647741753 35.02510588054622 0  -7.058770857454613 52.62423785425246 0  -7.41789574222015 52.08626963994947 0  -7.16107264018539 51.76174326642813 0  -6.801947982865399 52.29971205300976 0  -6.545123317507266 51.97518683582883 0  -6.943183599649672 38.62423678727277 0  -6.58398146322171 38.08631826066435 0  -6.840829330607121 37.7617510475794 0  -7.200031220101382 38.29967123326897 0  -7.456880647491007 37.97510528594104 0  -6.942845909314237 23.3760452745484 0  -6.583612857125613 23.91401970504177 0  -6.840515016222565 24.23855002321742 0  -7.199748303246271 23.70057693049066 0  -7.456648894717225 24.02510803857812 0  -7.884138654603408 17.50009101602928 0  -7.832815575913587 18.0209265531413 0  -8.442070828676266 17.75004496660398 0  -7.832802489715925 16.97926352326798 0  -8.442067825709746 17.25004580476808 0  -7.884030586244313 8.500093207993622 0  -7.832702517184121 9.020930981257189 0  -8.442016791131691 8.750046626956973 0  -7.931272820722858 2.415676554523052 0  -7.856284842780564 2.978718651653107 0  -8.465637841165647 2.707838560204308 0  -7.832689473995964 7.979263944489094 0  -8.44201379884046 8.250046538071855 0  -7.833143943307731 49.97935017802258 0  -8.442192884206516 50.25013302485418 0  -6.027925382701385 41.59328692628414 0  -6.123974496053249 42.06757418513678 0  -5
[...]
<PointData  Scalars="f_29"> 
<DataArray  type="Float64"  Name="f_29"  format="ascii">8.8981690640861032e+01  8.5972423293966131e+01  8.6938374543650610e+01  8.4897067383081463e+01  8.8003686005911248e+01  8.7039761713131526e+01  8.8986098069947502e+01  8.5975012888717373e+01  8.6942383648935305e+01  8.4901288532250419e+01  8.8005984931286065e+01  8.7041329736117405e+01  1.3350501781781691e+02  1.3049329439079213e+02  1.3146020136354309e+02  1.2941831208441153e+02  1.3252487314365712e+02  1.3156035662309441e+02  1.3349351702863646e+02  1.3063259198096705e+02  1.3145966506555408e+02  1.2942768122069361e+02  1.3265945909709802e+02  1.3183443004797149e+02  2.1847816781572857e+02  2.2149333108117955e+02  2.1945983550048220e+02  2.2042614523769120e+02  2.2052025230206357e+02  2.2256938442386959e+02  2.2256323728161368e+02  2.1970250955981228e+02  2.2053062461503052e+02  2.1849721762616022e+02  2.2173195791101790e+02  2.2090523823660089e+02  1.6179732420625680e+02  1.6481024863038479e+02  1.6277791793027345e+02  1.6374288457150348e+02  1.6384292861473821e+02  1.6588554049506297e+02  1.6587993945689715e+02  1.6290038557408209e+02  1.6384283623854640e+02  1.6180182847784224e+02  1.6493249319186472e+02  1.6399065820115212e+02  2.2660581489625415e+02  2.2963560398466291e+02  2.2760400797585982e+02  2.2859082105483469e+02  2.2864049394362669e+02  2.3068646094756681e+02  2.2660776521463600e+02  2.2963621424441982e+02  2.2760485620627827e+02  2.2859138315314527e+02  2.2864163367664699e+02  2.3068721624964186e+02  1.7397530497047919e+02  1.7441359102012504e+02  1.7534057830725257e+02  1.7670604745681715e+02  1.7304801531991978e+02  1.7212155082255674e+02  1.9825589592039225e+02  1.9781812250991908e+02  1.9689095983335642e+02  1.9552606735766898e+02  1.9918308010586395e+02  2.0010947138801956e+02  1.8611840456165723e+02  1.8567890988823228e+02  1.8475293120963727e+02  1.8338731371073240e+02  1.8704421160026166e+02  1.8796989284118439e+02  2.8297869344918581e+01  2.7859260943966749e+01  2.6934069910286340e+01  2.5570325595377348e+01  2.9223140219657559e+01  3.0147800511268738e+01  1.2133170981983430e+02  1.2177024163710263e+02  1.2269689409421325e+02  1.2406253966037981e+02  1.2040535952405531e+02  1.1947893446343679e+02  1.6172118241162746e+01  1.6609049436814715e+01  1.7535429144522464e+01  1.8898761110167118e+01  1.5245478109777999e+01  1.4319489236645440e+01  4.0425313293458004e+01  4.0863596512242886e+01  4.1789086158650221e+01  4.3152770592392940e+01  3.9499765169368573e+01  3.8575038010996828e+01  5.2552066075656171e+01  5.2113941564915535e+01  5.1188341853943435e+01  4.9824680513256752e+01  5.3477655100218158e+01  5.4402752369275397e+01  6.4679863448481711e+01  6.4242460226863585e+01  6.3316023812393027e+01  6.1952239961022435e+01  6.5606301417454944e+01  6.6531908639087206e+01  7.6812268048543231e+01  7.7251428367888366e+01  7.8177391099398747e+01  7.9542903732386037e+01  7.5886631903102057e+01  7.4961472467975128e+01  1.0919582268782654e+02  1.0963402850480261e+02  1.1056030534385634e+02  1.1192506502859079e+02  1.0826937840514543e+02  1.0734304321382903e+02  7.7194259734156716e+01  7.6078281494848270e+01  7.3871230423208758e+01  7.4985227573103757e+01  7.2787887981441827e+01  1.0957705902139864e+02  1.0846017078820647e+02  1.0625022530178695e+02  1.0736518334913505e+02  1.0516200113422664e+02  6.4299551260994960e+01  6.5415512303928210e+01  6.7623526808406197e+01  6.6507061633951793e+01  6.8703617262116609e+01  1.2171227952960790e+02  1.2059585518525442e+02  1.1838631290513990e+02  1.1950080904643941e+02  1.1729857169678363e+02  5.2170817953220720e+01  5.3286570252346465e+01  5.5493854695166725e+01  5.4380010953036866e+01  5.6579764536544936e+01  4.0807128693302623e+01  3.9691398326601757e+01  3.7485173770379475e+01  3.8598893523941342e+01  3.6402118719234174e+01  1.6551954885271243e+01  1.5435836163241559e+01  1.3227105088618330e+01  1.4343652391809847e+01  1.2145044705391816e+01  2.7915157769363667e+01  2.9031316627058686e+01  3.1238862955848592e+01  3.0122373472558031e+01  3.2318657352684092e+01  1.8573576234422268e+02  1.8685258065355566e+02  1.8906192961615463e+02  1.8794706272635204e+02  1.9014880785490507e+02  1.9787523528489979e+02  1.9899213689039357e+02  2.0120203994610316e+02  2.0008462422274079e+02  2.0228309491776653e+02  1.7435655348111155e+02  1.7323939854913738e+02  1.7102997755898338e+02  1.7214501553818474e+02  1.6994451324915210e+02  9.6720042225353438e+01  9.7802936729488479e+01  9.9991949027228557e+01  9.8885976905180854e+01  9.8910944560407202e+01  1.0109303394875978e+02  2.1073990050209548e+02  2.0965652361603742e+02  2.0746832376624371e+02  2.0857256978341053e+02  2.0854954603012493e+02  2.0637105445401178e+02  1.5406144010728138e+02  1.5297817656295592e+02  1.5079048509104339e+02  1.5189447617399989e+02  1.5187147914983271e+02  1.4969347414102788e+02  1.4123834956959516e+02  1.4232207313369278e+02  1.4451131485287590e+02  1.4340590996540652e+02  1.4342728197416108e+02  1.4560541613589118e+02  2.0432800665663535e+02  2.0645129520164525e+02  2.0534148826019265e+02  1.4765002348019854e+02  1.4977331460135258e+02  1.4866360434982639e+02  1.4552679913567206e+02  1.4663415391368756e+02  1.0215599721332921e+02  1.0052047199296800e+02  1.0163044637234961e+02  1.0412265334382982e+02  1.0573334196619453e+02  1.0463651299561691e+02  1.3905443346899131e+02  1.4123058001669696e+02  1.4254411210469416e+02  1.4036803211421986e+02  1.4168160827646369e+02  2.1292636656351894e+02  2.1074865567979094e+02  2.0943460695530007e+02  2.1161194214886933e+02  2.1029755278942349e+02  1.5624622754186353e+02  1.5406976684608205e+02  1.5275622599527341e+02  1.5493255448389340e+02  1.5361888004011695e+02  9.4534414973635450e+01  9.6710486289061777e+01  9.8023107276485760e+01  9.5847236504897538e+01  9.7159773647080470e+01  7.0746151668841122e+01  7.2854784965425495e+01  7.1759002309249809e+01  6.8637844783120059e+01  6.9731307049137143e+01  3.4361116778219298e+01  3.6469126617386870e+01  3.5373517253554006e+01  9.7634504958444879e+00  1.2042755709436042e+01  1.0948236265904381e+01  3.2253318229690677e+01  3.3346267865300518e+01  2.0221754347125849e+02  2.0331199454028689e+02  1.6828019579591725e+02  1.7020158637054348e+02  1.6910626664399211e+02  9.9853453087240638e+01  9.9369859103426961e+01  9.8506429359388463e+01  2.0706296018256430e+02  2.0781762887072759e+02  2.0868020713700710e+02  1.5039339364818630e+02  1.5114373758343052e+02  1.5200614813588484e+02  1.4491640328678611e+02  1.4416132150001070e+02  1.4329896146953223e+02  1.1622940605741522e+02  1.1785465688481167e+02  1.1675812891762655e+02  1.7684968891844494e+02  1.7448570551316607e+02  1.7677800668226047e+02  1.9538339169886405e+02  1.9774629204096851e+02  1.9545447734821425e+02  1.8324333380630816e+02  1.8560668645650787e+02  1.8331510940635536e+02  2.5426413058127626e+01  2.7786900208626157e+01  2.5498310043638096e+01  1.9041497654075531e+01  1.6680785664126642e+01  1.8970146814242174e+01  1.2423853242840890e+02  1.2185852528024770e+02  1.2415100584601859e+02  4.3296243579002159e+01  4.0935804369432603e+01  4.3224573104571597e+01  4.9681345777986088e+01  5.2041925595882404e+01  4.9752940801525753e+01  6.1809776795457950e+01  6.4170706019753254e+01  6.1880763353944452e+01  7.9718981666582380e+01  7.7340050960099902e+01  7.9631468186722117e+01  1.1206890128405514e+02  1.0970607467336485e+02  1.1199707233737195e+02  1.0602245602534965e+02  1.0668260119948182e+02  1.0760942932911212e+02  7.3477874309582688e+01  7.4219542119831374e+01  7.5145132736873620e+01  6.7984754794511090e+01  6.7258487355003695e+01  6.6332243158196420e+01  1.1811824480595021e+02  1.1879849251676785e+02  1.1972505925523990e+02  5.5810728958528962e+01  5.5106824260375696e+01  5.4181360827713256e+01  3.7121699005778090e+01  3.7848155306551782e+01  3.8773601500839213e+01  1.3397777746958409e+01  1.3858434700895025e+01  1.4785122829142786e+01  3.1601147899371803e+01  3.0874640832692450e+01  2.9949398966370939e+01  1.7075356165205631e+02  1.7143737231056838e+02  1.7236480466948424e+02  2.0156357542437223e+02  2.0083668775061054e+02  1.9990964630359181e+02  1.8937949947937213e+02  1.8867476350492362e+02  1.8774892283442040e+02  1.6613520049863399e+02  1.6707968810861041e+02  2.2458738036526896e+02  2.2250708031855285e+02  2.2357154059827252e+02  2.2458630944491574e+02  2.2274579660796363e+02  2.2357365039930622e+02  2.2658865389212954e+02  2.2559534361225633e+02  2.2658940097833764e+02  2.2559605154794659e+02  5.7191149903339085e+00  8.3480024498101084e+00  6.3261748549736039e+00  6.9329665459654874e+00  7.7403337433457500e+00  2.3972775294410542e+02  2.3973853222162131e+02  2.4128682908509006e+02  2.3974905874130832e+02  2.4127637316308281e+02  2.4282498386772232e+02  2.3972766522279858e+02  2.3973857363555291e+02  2.4128697795308167e+02  2.4127638522396330e+02  2.4282498386772232e+02  2.3344005616904292e+02  2.3101554718176132e+02  2.3205915096181462e+02  2.3344034279991317e+02  2.3101605145814767e+02  2.3205967746713202e+02  3.1312771094554539e+00  3.1410784022363334e+00  1.5759183915469457e+00  3.1515020360856028e+00  1.5656663519685481e+00  0.0000000000000000e+00  9.0346481277704058e+01  8.8843194071528018e+01  9.0644697024039175e+01  8.8545713259917704e+01  9.0050590167177873e+01  1.3486405751005134e+02  1.3336058622787519e+02  1.3516012432857414e+02  1.3306492719694097e+02  1.3457002814919312e+02  1.6043593840683556e+02  1.6193995798870225e+02  1.6013760379399540e+02  1.6223770708246894e+02  1.6073206826559070e+02  2.1741381814371186e+02  2.1892005155952793e+02  2.1834886968240158e+02  2.1684448620770578e+02  2.1627229975909555e+02  3.0928625967667456e+00  3.1218835442574537e+00  1.5761049453685951e+00  1.5464005830304008e+00  0.0000000000000000e+00  8.3781623106216088e+01  8.5410848087224892e+01  8.4342574690258616e+01  1.2830215156233461e+02  1.2993140920907538e+02  1.2886344736090433e+02  1.6695509832583386e+02  1.6534887973151754e+02  1.6641704380674483e+02  2.2250770374077334e+02  2.2458739733166354e+02  2.2458743530973700e+02  2.2658907649453269e+02  2.2458720114128991e+02  2.2658937979741555e+02  2.2274595302492534e+02  1.6594585996043912e+02  1.6808981708214932e+02  1.6790059046212346e+02  8.6207740114057060e+01  8.6624068518424053e+01  8.8426878066944070e+01  8.6623306588231785e+01  8.8842610801638799e+01  1.3045153888066395e+02  1.3100538403299379e+02  1.3280637832701569e+02  1.3114263935499858e+02  1.3349714331478799e+02  2.1976060923564719e+02  2.2009386201021681e+02  2.1801609373019687e+02  1.6457641861898003e+02  1.6428346291714146e+02  1.6623871654313032e+02  1.6206322975144786e+02  1.6235635572499490e+02  1.6416016209754034e+02  2.2822906345003665e+02  2.2841040008589928e+02  2.2640820452968228e+02  2.2841009291299676e+02  2.3018373634753127e+02  2.3000239682786841e+02  2.3177519622249847e+02  2.2033288733105667e+02  2.2217386006495263e+02  2.3018400358840574e+02  9.0575139773753818e+01  8.8807642013214121e+01  9.0608838107604285e+01  1.3509239669666920e+02  1.3346352148387152e+02  1.3512552954493890e+02  1.6020759510847847e+02  1.6209837545638555e+02  1.6017368443734736e+02  7.2112678090231299e+01  6.9364854500175056e+01  3.5742122832564341e+01  1.1581507663913500e+01  3.2980465474703124e+01  2.0294517857457737e+02  2.1839183611338072e+02  2.1664786416134467e+02  2.1702240715263329e+02  2.1896343922454182e+02  7.0745805860531249e+01  6.9365163018773629e+01  7.0746077451958513e+01  7.2111882503091280e+01  3.4361393342380715e+01  3.2981175240605850e+01  3.4361297615575211e+01  1.0106391731369200e+01  1.1752230212902155e+01  9.9351979055911421e+00  3.5741628669366825e+01  2.0432682968445698e+02  2.0294507687583845e+02  2.0432751428128518e+02  8.2460867587899429e+01  8.4995430956972569e+01  8.4333933189151537e+01  8.3121990810356593e+01  1.2698090092117056e+02  1.2937764635028049e+02  1.2871598749849218e+02  1.2764216220135097e+02  1.6576492524979108e+02  1.6742705796701784e+02  1.6951674682681264e+02  1.6932737229009808e+02  2.3721839175853830e+02  2.3455697747883158e+02  2.3644681564990762e+02  2.3567544457289918e+02  2.3532971826160221e+02  2.3721846055970823e+02  2.3455709730023906e+02  2.3644686620201966e+02  2.3532982340477125e+02  2.3260668484768198e+02  2.3260646506775538e+02  5.7981116538038997e+01  5.6191403848622855e+01  5.7286585035091207e+01  1.9155145362545778e+02  1.8976016897827944e+02  1.9085625222224479e+02  2.0569614848403708e+02  1.4628251142990155e+02  1.4902242473806555e+02  2.0569492786169721e+02  1.4765011464024110e+02  1.4628318406017110e+02  1.4765009528909422e+02  1.4902181307901668e+02  1.0312754924828380e+02  1.0507261448650135e+02  1.0457511735269082e+02  1.0362495891614688e+02  1.2133221558064734e+02  1.1931405330529969e+02  1.2152214885277846e+02  6.4678228384889366e+01  6.4488858334338403e+01  6.6693627854806223e+01  7.6814884984499272e+01  7.4799123774916850e+01  7.7004543709322846e+01  1.0919736688510805e+02  1.0717834836148431e+02  1.0938723434379763e+02  1.6173051118036511e+01  1.4156725426610183e+01  1.6362572327996816e+01  2.8293400731245377e+01  2.8104132974959857e+01  3.0308879742380476e+01  4.0428265422454359e+01  3.8412850690641747e+01  4.0617767202529720e+01  5.2549981916085521e+01  5.2360408223752110e+01  5.4566425728205601e+01  1.8611544461935469e+02  1.8592561588666061e+02  1.8813365960489963e+02  1.9825423205194747e+02  1.9806469880360035e+02  2.0027135770628874e+02  1.7397688904479890e+02  1.7195860152404521e+02  1.7416676284217795e+02  8.4849063844473775e+01  8.2975684025478969e+01  8.3489071015534293e+01  1.2924637353176806e+02  1.2751114595759820e+02  1.2804053828890014e+02  1.1484127770466507e+02  1.1353065350603637e+02  1.1499243355599694e+02  1.1337938892943154e+02  1.1469031548553431e+02  1.7989790456061925e+02  1.7844844338470594e+02  1.8004676798170118e+02  1.7829890021242790e+02  1.7974877500032875e+02  1.8019571539093445e+02  1.8164494708675164e+02  1.8179446132425380e+02  1.8034502949299855e+02  1.1717387004969092e+02  1.1561066245095843e+02  1.1655535624600303e+02  8.5265080944985456e+01  1.2993738560349772e+02  8.5194621338666003e+00  8.9519777569401654e+01  1.3403901927796335e+02  2.1794491383509603e+02  1.6126321743317104e+02  8.4198010384563219e+01  1.2873462377572420e+02  1.0100467924235289e+02  1.0149037602996718e+02  1.0264200159867585e+02  1.3869717441564754e+02  1.4105149746691058e+02  1.3887553823735581e+02  2.1328289025526712e+02  2.1092747589364296e+02  2.1310514166354164e+02  1.5655578611995122e+02  1.5422511237586892e+02  1.5640132770542371e+02  9.4225714904253195e+01  9.6555801189677695e+01  9.4379752488757120e+01  4.6488737903768921e+01  4.8085063012212380e+01  4.6488716070999793e+01  4.8085145398958609e+01  4.6488752480487676e+01  4.4892419117852214e+01  4.4892394536585307e+01  2.2234125036028868e+01  2.3830494675274306e+01  2.2234490987085064e+01  2.3830212186275070e+01  2.2233831149517300e+01  2.0637961381815131e+01  2.0637585426834189e+01  2.3372600705234350e+02  9.7059098295990324e+01  9.6890115120010904e+01  9.9077121577299593e+01  2.1040112018426643e+02  2.0838386715252472e+02  2.1057008714205546e+02  1.5372304547779243e+02  1.5170587445089652e+02  1.5389186409543518e+02  1.4157622940475960e+02  1.4140760238481806e+02  1.4359346563007273e+02  1.1746334086305808e+02  1.1622787755293619e+02  1.1607690216239681e+02  1.8243897545709072e+02  1.8124258378690240e+02  1.8109421061245769e+02  1.7765511864309414e+02  1.7885112716108767e+02  1.7899979823445724e+02  5.8912877812512313e+01  5.6895741045781442e+01  5.7361728225295984e+01  5.8447190767733183e+01  1.9248426298256771e+02  1.9046524508259353e+02  1.9093182403814006e+02  1.9201802836681668e+02  0.0000000000000000e+00  0.0000000000000000e+00  1.5758364235163946e+00  2.4282498386772232e+02  2.4282498386772232e+02  2.4128698020076496e+02  2.4282498386772232e+02  0.0000000000000000e+00  8.9779682144212501e+01  1.3429480298544811e+02  2.1776056440173156e+02  1.6100852209295365e+02  2.3847340311641381e+02  2.3848341066355459e+02  2.3847328993060785e+02  2.3848346627110965e+02  1.2306798967946509e+01  1.0416256493446577e+01  1.2221492399844514e+01  1.2143417682598821e+01  1.0503589515417072e+01  8.6993887323987327e+00  9.2400409529361838e+01  9.2435189721508607e+01  1.3689482300663511e+02  1.3692866763465108e+02  1.5838171347398617e+02  1.5834655180017097e+02  2.1515198223486539e+02  2.1477795297756941e+02  8.1603180214887800e+01  8.1090070011199515e+01  1.2613872337707308e+02  1.2560995411234177e+02  8.0735677996209461e+00  8.3899272683589139e+00  1.0107017865891185e+01  4.4248547012503670e+00  4.4355419802143929e+00  5.9896088970579754e+01  6.0360998196699711e+01  1.9346807747226237e+02  1.9393346444772942e+02  5.5181332594192014e+00  4.3052876187017599e+00  4.3348994744580756e+00  5.9310698172872918e+01  6.1225644381682827e+01  6.0649685024749125e+01  1.9288213446339543e+02  1.9479872137782516e+02  1.9422224597083718e+02  9.3370414133531540e+01  9.2007553144456239e+01  9.1710395128378451e+01  1.3794005251074944e+02  1.3655005471727824e+02  1.3625488992363685e+02  1.5736167906213817e+02  1.5874968212659005e+02  1.5904700786685535e+02  2.1416607349998273e+02  2.1521933207421634e+02  2.1578970967731277e+02  8.2170786085179842e+01  8.0285882366158617e+01  8.0844163784252132e+01  1.2670701905926569e+02  1.2480591251808255e+02  1.2536576807467573e+02  7.9122356257183233e+00  5.8913925920523793e+00  6.0629820316083798e+00  1.9420376222235427e+02  1.9209610412322854e+02  1.9123631564900714e+02  1.8998865000759159e+02  1.9334408818363252e+02  3.4361545658336638e+01  3.5460217898266066e+01  3.6558804047188715e+01  3.3262737094040062e+01  3.2164330463655148e+01  7.2722679909875936e+01  7.0634578611365470e+01  6.9646263705866431e+01  6.8546935006481206e+01  7.1734358394407820e+01  4.4482873843481926e+01  4.6476746383109372e+01  4.7479623223016873e+01  4.8470642673839166e+01  4.5485828680516789e+01  2.0229477818392002e+01  2.2223160908965937e+01  2.3225651144509392e+01  2.4216904645095163e+01  2.1232010797740617e+01  6.0630794659843353e+01  5.7665695718424132e+01  5.9771894580167533e+01  5.8524663730463864e+01  5.6418628860348264e+01  8.0346324812329897e+01  8.1404055381283314e+01  8.2063340366620750e+01  1.2499951657249035e+02  1.2599067539385270e+02  1.2665028165478026e+02  1.7038155444704412e+02  1.6914069116229669e+02  1.6866894616312598e+02  1.0071494856417134e+02  1.0192164087821854e+02  1.0241809533511149e+02  1.1306283474884843e+02  1.1402821657844918e+02  1.1464565026157062e+02  1.0374281543919555e+02  1.0422771925969325e+02  1.0532883931418895e+02  1.4554807668902941e+02  1.4873706069773397e+02  1.4659890641299677e+02  1.4768589402506930e+02  1.4982358979165491e+02  2.0643980962811005e+02  2.0428268060299055e+02  2.0322630069471521e+02  2.0212595412527648e+02  2.0538349295968067e+02  7.8165214584663536e+00  9.4033899407573251e+00  7.8456266549755739e+01  7.9023378622904346e+01  1.1082297640199947e+02  1.1265468167161465e+02  1.1140899121910215e+02  1.1323612441231546e+02  4.2051604229432222e+01  4.3881241247237988e+01  4.2636503436194040e+01  4.4459682900069424e+01  1.7560299991944325e+02  1.7743497423745762e+02  1.7618809608762496e+02  1.7801133356779644e+02  5.0926123722255475e+01  4.9096355781982609e+01  5.0341236120734393e+01  4.8517799139405241e+01  1.9662954158740820e+02  1.9604494333874337e+02  1.8448966051148582e+02  1.8265816589913413e+02  1.8390463054760940e+02  1.8208191917079239e+02  2.6670901707638308e+01  2.4841129893794779e+01  2.6085662234923792e+01  2.4262515745931566e+01  1.7796630517006815e+01  1.9626296028250341e+01  1.8381459131013322e+01  2.0204672144479215e+01  6.3054902380632555e+01  6.2470817189878687e+01  1.2297516484850289e+02  1.2354259487461250e+02  1.3938847430065383e+02  1.3811538353766375e+02  1.3754109344581587e+02  1.3996794546112278e+02  1.5591108124053900e+02  1.5716090921347208e+02  1.5775851217644919e+02  1.5530845212973963e+02  2.1258938623802970e+02  2.1386388104036178e+02  2.1443372052778696e+02  2.1201100897033493e