<?xml version="1.0"?>
<VTKFile type="UnstructuredGrid"  version="0.1"  >
<UnstructuredGrid>
<Piece  NumberOfPoints="2690" NumberOfCells="4864">
<Points>
<DataArray  type="Float64"  NumberOfComponents="3"  format="ascii">-5.082486108148288 22.0180259641643 0  -5.6710111374739 21.28068757550605 0  -5.08086926258537 21.51949967651154 0  -5.078930785394663 21.01810401662803 0  -5.672652237954155 21.78102232283618 0  -6.262786427562044 21.541112319409 0  -9 21.99999999996945 0  -8.408919930514902 21.26626692424741 0  -9 21.49999999997139 0  -9 20.99999999997333 0  -8.409210972745376 21.76624601162736 0  -7.818149137044445 21.5324443521836 0  -9 32.9999999999446 0  -8.415277806831142 32.26620778417256 0  -9 32.49999999994358 0  -9 31.99999999994255 0  -8.415568384515005 32.76621351117639 0  -7.830862027334106 32.5323836041275 0  -5.124656976535394 33.01947489038769 0  -5.625983520177223 32.31563103627695 0  -5.122974625885008 32.52206790770229 0  -5.120892855337198 32.01884284018003 0  -5.627685233748062 32.81613279022956 0  -6.1306786844147 32.60999182468895 0  -5.206645698696059 54.01854224647244 0  -5.780976871885418 54.75517718297197 0  -5.779354612606973 54.25595494276878 0  -6.351788621752677 54.49064621904691 0  -5.208573312511403 54.51993667455313 0  -5.21023420714153 55.01872260451874 0  -9 54.99999999998974 0  -8.49743596886416 54.29929032858894 0  -9 54.49999999998872 0  -9 53.99999999998769 0  -8.497694342980584 54.79921174598044 0  -7.995184408422817 54.59844911468767 0  -9 39.99999999995897 0  -8.42021441542437 40.74114688137661 0  -8.419923689871849 40.24115120264199 0  -7.840125443271759 40.48224763944855 0  -9 40.49999999996 0  -9 40.99999999996102 0  -5.155555099251784 41.01720383459243 0  -5.707373777030231 40.2863531309534 0  -5.153884867403268 40.52001282791667 0  -5.151970868772038 40.01938147577651 0  -5.709016296721828 40.78606167755989 0  -6.262500535407231 40.55175915688993 0  -9 55.99999999999179 0  -8.45303396835817 56.74670044972171 0  -8.452778984719737 56.24665058806712 0  -7.905824823362622 56.49330085078914 0  -9 56.49999999999282 0  -9 56.99999999999384 0  -5.214500759293013 56.0176931808467 0  -5.764129230546333 56.76109290547237 0  -5.762536169855488 56.26101595354517 0  -6.310237891185674 56.50209634974773 0  -5.216547661381748 56.52053378029319 0  -5.218204243467426 57.01878446651743 0  -7.501369636369222 43.01021191532753 0  -6.688423504683715 43.12412582327106 0  -7.273194119541178 43.34928294412637 0  -7.045167415711672 43.68836734860282 0  -6.916444809056681 42.78494225247025 0  -6.331263459554486 42.55968015122901 0  -6.676099620231494 49.01930226979379 0  -7.484292206464844 48.90430287894846 0  -6.90274292596336 48.68009603721807 0  -7.12956150069985 48.34083041806278 0  -7.257490639934192 49.24347166932754 0  -7.838602289866264 49.46777888837891 0  -6.669051735925652 46.01812595548493 0  -7.47969767455827 45.90353985055162 0  -6.896415497572719 45.67870372789688 0  -7.123941797712324 45.33937515176559 0  -7.252181556692944 46.24285396882611 0  -7.835051000321797 46.46751442812094 0  -6.578160259604274 7.018748677242534 0  -7.420425274046043 6.904034343928545 0  -6.814424475017826 6.679532269974819 0  -7.050852198589117 6.34031994985749 0  -7.184007925018206 7.243243180520433 0  -7.789597041159349 7.46772487864509 0  -7.481775938524511 30.01009703306747 0  -6.658190831319938 30.12386802138348 0  -7.250619490965963 30.3488894409527 0  -7.019617187265075 30.6876182178326 0  -6.889194966432876 29.78501491909178 0  -6.296348816823156 29.56003494680176 0  -6.57152191182638 4.017845409039869 0  -7.416440637728667 4.119814783043753 0  -6.809786490513544 4.353593888281151 0  -7.047919824504978 4.689284094196356 0  -7.178316240629987 3.784088869882914 0  -7.785333304131158 3.550448534156148 0  -6.584978722395025 10.01890603703872 0  -7.425184617361333 10.12052412055536 0  -6.82195264502022 10.35441849746813 0  -7.058787876267488 10.68993209352209 0  -7.18833610711086 9.785029689294095 0  -7.791960758363101 9.551130195304367 0  -6.591816074372862 13.01907810423797 0  -7.429319352129622 12.90429949164079 0  -6.826733514675769 12.67986792060066 0  -7.061813415880913 12.34066337735822 0  -7.194243032260656 13.24353104312391 0  -7.796419116006197 13.46793160306983 0  -6.598699900759933 16.01936973987045 0  -7.433820431607162 15.90438594319009 0  -6.832941177167209 15.68018136163328 0  -7.067349902005977 15.34094558967762 0  -7.199426534831606 16.2435518979205 0  -7.799884760209107 16.46784307481154 0  -6.605804105807795 19.01734983458083 0  -7.438787043147917 19.11930529922625 0  -6.840810477262819 19.35254785559346 0  -7.075648492547181 19.68785579071586 0  -7.203933732491493 18.78394031996855 0  -7.802347426109153 18.55048106267023 0  -6.62449942814937 27.01670250022613 0  -7.450981904275141 27.11890049972526 0  -6.857643472975425 27.35226772558986 0  -7.090640556718428 27.68785942897292 0  -7.217982849687497 26.78320529081208 0  -7.811724912606803 26.5498603100587 0  -8.282178088771824 19.09901182867123 0  -8.042329129280002 18.82471783055614 0  -8.401011669753643 18.2752911466578 0  -8.640892230354982 18.54958540133284 0  -9 17.99999999998495 0  -8.287788058441059 27.09880800729266 0  -8.049820063256998 26.82433649455128 0  -8.40570579039229 26.27491332928383 0  -8.643703913923405 26.54940052898852 0  -9 25.99999999995395 0  -8.279916599785174 15.91184603897238 0  -8.039835678962577 16.1898548384794 0  -8.40010044454592 16.73388089121467 0  -8.640149768268277 16.45589346478144 0  -9 16.99999999998883 0  -5.823875183688299 30.11596807849175 0  -6.060043326968241 29.83798180368504 0  -5.703093043701523 29.29330143370376 0  -5.466914912615638 29.5721395082332 0  -5.109062295188899 29.01802112774256 0  -8.277844150796321 12.91183790295569 0  -8.037067955862074 13.18988097686909 0  -8.3983629939093 13.73397368661169 0  -8.639109883788619 13.45592771220568 0  -9 13.99999999999401 0  -8.275924130267116 10.09958310199172 0  -8.034004430688695 9.825357366121469 0  -8.395825594582726 9.275562190830797 0  -8.63777665944224 9.54978798110313 0  -9 8.99999999999857 0  -8.271917487092358 4.099247281757742 0  -8.028681154268869 3.824862878555646 0  -8.392542658539906 3.275198128044235 0  -8.635795584661693 3.549586272911671 0  -9 2.999999999998668 0  -8.273757362525904 6.911705235942684 0  -8.031613816221167 7.189711488453754 0  -8.394951267140415 7.733867743977386 0  -8.637064719542058 7.455863607986037 0  -9 7.999999999999485 0  -8.301008780342139 45.91147731066142 0  -8.067965649319211 46.18947460536226 0  -8.417681931668008 46.73379057761775 0  -8.650694119247024 46.4557951907227 0  -9 46.99999999997333 0  -8.303122959999321 48.91179760513482 0  -8.070795474865537 49.18979866666297 0  -8.419463685620832 49.73384689728857 0  -8.651758744019661 49.45587225022646 0  -9 49.99999999997949 0  -5.864914474859414 43.11619050938951 0  -6.098018814853675 42.83793173528131 0  -5.74567260360932 42.29269693357184 0  -5.512566315015234 42.57190867061047 0  -5.159271644212737 42.0172777082453 0  -5.799929862792536 23.93860039691819 0  -6.04385262926011 24.20438352757682 0  -5.690839314793126 24.74833601686456 0  -6.287637461488086 24.47022777108597 0  -5.447030439611952 24.48340726851067 0  -5.094070565625205 25.01789089880584 0  -8.309942615812234 52.08872737936923 0  -8.073274583315627 51.82283262703337 0  -8.418068142791768 51.2785453061455 0  -7.83647302050021 51.55698922599724 0  -8.654773489854309 51.54443901682831 0  -9 50.99999999998153 0  -5.844483535538876 38.10571360704537 0  -6.083457154130142 37.83590950024104 0  -5.731627189409468 37.29598567904036 0  -6.322564899460303 37.56616069426396 0  -5.492641176077726 37.56682295180902 0  -5.139842931521776 37.01647316430125 0  -5.834469178036377 34.93842788645263 0  -6.075782368121066 35.20408110939459 0  -5.726621107250097 35.74780609471871 0  -6.316958039399006 35.46979179168988 0  -5.48540989561018 35.48313759040071 0  -5.136331480343639 36.01704380546063 0  -7.937462624407394 50.50856338686131 0  -7.886938254376536 51.03279936661587 0  -8.468869485257636 50.7542339209066 0  -6.216169511299753 36.51779486767615 0  -6.269387114658388 37.0418661203359 0  -5.678115083966514 36.7703197925965 0  -6.266537053733555 35.99367163451708 0  -5.676450844776824 36.27010915971309 0  -6.048660340064998 25.27953755076156 0  -6.168111124129037 24.87491988726192 0  -5.571526713845383 25.1520116634049 0  -8.051084149421438 25.7522951203064 0  -7.931358009521861 26.15107704917963 0  -8.525599830166062 25.87615059805074 0  -7.009320441589074 34.3890559681201 0  -6.662949835555496 34.92952990137192 0  -6.912086652122333 35.25230201137263 0  -7.258481514078901 34.71197915614905 0  -7.507479707059391 35.0348699726433 0  -7.155219616690321 52.63721994851604 0  -7.495648822823741 52.09720230457043 0  -7.250851674308775 51.77471038960672 0  -6.910441612301944 52.3147847620423 0  -6.665493843411373 51.99240093602218 0  -7.017772620278012 38.6371352882709 0  -6.670358439716748 38.10175262835457 0  -6.917349640142877 37.7754513687231 0  -7.264745844073886 38.31099515989028 0  -7.511880318732975 37.98481484099824 0  -6.987615493119048 23.3891520627593 0  -6.637440319559548 23.92975565038635 0  -6.889275773307359 24.2526103438463 0  -7.239477905543143 23.71213422134512 0  -7.491179305201682 24.03506574551856 0  -7.902113795673073 17.50845199570957 0  -7.852202096394103 18.0294936762048 0  -8.451192275249801 17.75417702105981 0  -7.851023991218641 16.98815739215623 0  -8.450921744107136 17.25425321546215 0  -7.892656465115111 8.508644949324694 0  -7.84228457668468 9.029889315345967 0  -8.446456682773901 8.754324354267156 0  -7.933909816361466 2.42310853662682 0  -7.859570247165972 2.986755808743559 0  -8.46707567744582 2.711579457887541 0  -7.841152270852927 7.98818963915394 0  -8.446196960858467 8.25431640446109 0  -7.888058690798383 49.98818185154155 0  -8.468591990894556 50.25431026131736 0  -6.144132611401559 41.61056988521091 0  -6.237744240617709 42.08520541151563 0  -5.65182
[...]
<PointData  Scalars="f_29"> 
<DataArray  type="Float64"  Name="f_29"  format="ascii">3.9286883012747285e+02  3.7928768410321879e+02  3.8363634639796163e+02  3.7442203690222573e+02  3.8846525145798387e+02  3.8408275718204897e+02  3.9271829410279418e+02  3.7914261177616658e+02  3.8348367067545371e+02  3.7426223346013688e+02  3.8832222821868061e+02  3.8399584973758755e+02  5.9647386559076540e+02  5.8257452680549045e+02  5.8701772172900087e+02  5.7757762916176262e+02  5.9197385131883118e+02  5.8754116305372850e+02  5.9657671164325689e+02  5.8334997171803400e+02  5.8716501632927543e+02  5.7778190858927496e+02  5.9273042869024914e+02  5.8889483968487491e+02  9.9895489236192793e+02  1.0135522566662369e+03  1.0037083229858212e+03  1.0083637864281985e+03  1.0088375829740387e+03  1.0187654619267512e+03  1.0185883116297355e+03  1.0047451512195926e+03  1.0087349917934371e+03  9.9888202719743981e+02  1.0145853129015529e+03  1.0106025622982943e+03  7.2849505899453675e+02  7.4269269538145704e+02  7.3313336494200860e+02  7.3770305686893494e+02  7.3811355509760358e+02  7.4772145244102978e+02  7.4786617953454925e+02  7.3384055052742860e+02  7.3827078810859837e+02  7.2866321406656562e+02  7.4341350884914198e+02  7.3895533803165597e+02  1.0382198160964269e+03  1.0529672071891337e+03  1.0430937338435756e+03  1.0479174685104210e+03  1.0481081845251260e+03  1.0580487844710685e+03  1.0383630614748122e+03  1.0530762882903398e+03  1.0432087926477611e+03  1.0479878088210626e+03  1.0482415290903289e+03  1.0581858421795339e+03  7.8595740259198931e+02  7.8805456901522462e+02  7.9242336192963091e+02  7.9889658937705872e+02  7.8159590441471983e+02  7.7723479400447627e+02  9.0148215940544071e+02  8.9934659610923518e+02  8.9493681201348681e+02  8.8839647665720349e+02  9.0589788914256349e+02  9.1030836300722603e+02  8.4356450878005137e+02  8.4143945120935780e+02  8.3706807315663957e+02  8.3057315795719558e+02  8.4794307622800966e+02  8.5231821528451576e+02  1.2281158214410743e+02  1.2085372000591744e+02  1.1683923998037974e+02  1.1087027536081195e+02  1.2683200760253216e+02  1.3084763439386617e+02  5.4034097948974613e+02  5.4238345952916677e+02  5.4663678365179499e+02  5.5294091422295185e+02  5.3609814457704169e+02  5.3185615825578282e+02  6.9961499410060711e+01  7.1828212011483316e+01  7.5877382436335068e+01  8.1795405797093665e+01  6.5918364866106927e+01  6.1875830590727723e+01  1.7604372136875494e+02  1.7792977457060937e+02  1.8204119442403132e+02  1.8804005780711407e+02  1.7193718060544029e+02  1.6783442852473920e+02  2.2961916998625134e+02  2.2763303982250542e+02  2.2356514280073728e+02  2.1751445283084630e+02  2.3369204086698940e+02  2.3776108956029387e+02  2.8355049171486792e+02  2.8155820221919390e+02  2.7745435768982441e+02  2.7136312126874327e+02  2.8766008114368924e+02  2.9176432550249831e+02  3.3790317465177145e+02  3.3984918041174649e+02  3.4404144436770463e+02  3.5018545381084914e+02  3.3372127491030170e+02  3.2953701026461852e+02  4.8469014146537074e+02  4.8666807671480046e+02  4.9092796073412654e+02  4.9716972960498293e+02  4.8043936099229444e+02  4.7618460283926504e+02  3.3955117653103707e+02  3.3454551063357479e+02  3.2460832475043037e+02  3.2959908051742872e+02  3.1971010943127988e+02  4.8636953595141443e+02  4.8127722500449210e+02  4.7116619420038040e+02  4.7624409570265897e+02  4.6616820294798600e+02  2.8176646573750429e+02  2.8676410539696377e+02  2.9660982168706084e+02  2.9160461829118384e+02  3.0140832948635972e+02  5.4211917943390142e+02  5.3699075680670978e+02  5.2686406989890861e+02  5.3194112920606517e+02  5.2190116706647211e+02  2.2783415813455213e+02  2.3279628785225620e+02  2.4256600564399716e+02  2.3760758792736698e+02  2.4734965212279542e+02  1.7763042008482654e+02  1.7273360011053896e+02  1.6300539861965672e+02  1.6788835300224380e+02  1.5820874683433823e+02  7.1538972025064524e+01  6.6707762638021521e+01  5.7109481677224139e+01  6.1937614389367624e+01  5.2392448922855131e+01  1.2105121816913523e+02  1.2594824360953533e+02  1.3558996097545253e+02  1.3068648700593454e+02  1.4028546448776046e+02  8.4166377392235972e+02  8.4698960575182025e+02  8.5748423159554477e+02  8.5216153680746618e+02  8.6262860671179044e+02  8.9957485374122371e+02  9.0494028521669350e+02  9.1551528383106313e+02  9.1014233173789455e+02  9.2067677891166761e+02  7.8778709087844504e+02  7.8251382258246417e+02  7.7210396945886635e+02  7.7732547726491998e+02  7.6701119715392929e+02  4.2786017460415110e+02  4.3278690665713435e+02  4.4277715776782094e+02  4.3771158493988082e+02  4.3781224870460352e+02  4.4782835725006299e+02  9.6141061580788573e+02  9.5619984285805890e+02  9.4563341884420947e+02  9.5098764589489895e+02  9.5082882897982677e+02  9.4030901997872161e+02  6.9228319028563567e+02  6.8722164638792719e+02  6.7702584256082946e+02  6.8215681054670745e+02  6.8202756742484746e+02  6.7193580995344678e+02  6.3245508354219317e+02  6.3750440791646315e+02  6.4773387968185943e+02  6.4255239916643109e+02  6.4263748685660551e+02  6.5288214351601766e+02  9.3055424828891012e+02  9.4077193293200321e+02  9.3540007057775370e+02  6.6237837425992848e+02  6.7226691994089117e+02  6.6713703265236029e+02  6.5245492494008442e+02  6.5765816831903794e+02  4.5263036827774079e+02  4.4516527762455297e+02  4.5026496966898623e+02  4.6148166922642270e+02  4.6883318602015089e+02  4.6380080775025402e+02  6.2229190260449514e+02  6.3241208175655606e+02  6.3851857235964849e+02  6.2838793721056390e+02  6.3448668245220165e+02  9.7201914127473742e+02  9.6149514347851141e+02  9.5517034665007839e+02  9.6568532443439187e+02  9.5935654391553430e+02  7.0250683555302271e+02  6.9231736953566065e+02  6.8616639934380282e+02  6.9634461117146122e+02  6.9018510833508344e+02  4.1792838951471578e+02  4.2780938107294128e+02  4.3376657836284465e+02  4.2387580272928597e+02  4.2982493053899969e+02  3.1061670453855510e+02  3.2007738579563835e+02  3.1513085514859387e+02  3.0118145961064869e+02  3.0604171372533040e+02  1.4931018628810949e+02  1.5857367946075141e+02  1.5372631916286574e+02  4.2133115870061573e+01  5.2005955129591783e+01  4.7236243093032144e+01  1.4007031513338438e+02  1.4482638305621276e+02  9.2042217298702792e+02  9.2564376128551771e+02  7.5915130745922079e+02  7.6819025727625865e+02  7.6306433617758523e+02  4.4208811152712599e+02  4.3990250390017138e+02  4.3595245005603755e+02  9.4375427066696761e+02  9.4737050958561110e+02  9.5155359966235892e+02  6.7512516608206533e+02  6.7864228958173703e+02  6.8265035857439875e+02  6.4957096953498558e+02  6.4606447838940790e+02  6.4202380556923015e+02  5.1696700310310007e+02  5.2440925720725227e+02  5.1941884052767591e+02  7.9960734510283078e+02  7.8840311224592949e+02  7.9925479488949372e+02  8.8767443787081584e+02  8.9898297170672572e+02  8.8803653775323892e+02  8.2984662349720804e+02  8.4107601109057850e+02  8.3021102972394056e+02  1.1020073391984366e+02  1.2051663980172310e+02  1.1053754566750480e+02  8.2378684112171541e+01  7.2121882524541306e+01  8.2089452609400922e+01  5.5377784207474110e+02  5.4279734892639112e+02  5.5336342047394999e+02  1.8862576166907954e+02  1.7822505157803866e+02  1.8833519160820083e+02  2.1683422319782525e+02  2.2729108317807783e+02  2.1717628160964824e+02  2.7068675242959898e+02  2.8121758984325072e+02  2.7102606762101681e+02  3.5094146882597073e+02  3.4023057574108873e+02  3.5056824438008653e+02  4.9779347099095315e+02  4.8698145768866493e+02  4.9748424379180875e+02  4.7018793622802229e+02  4.7318578064836828e+02  4.7743718961874180e+02  3.2290727363581317e+02  3.2622203976076634e+02  3.3040282830306052e+02  2.9829848061137841e+02  2.9503305891420746e+02  2.9092197432170559e+02  5.2558354878314640e+02  5.2872214790429291e+02  5.3295852208909639e+02  2.4405101844248878e+02  2.4090690598037051e+02  2.3683248199503919e+02  1.6148190933305091e+02  1.6465841808727430e+02  1.6875972887678861e+02  5.7911324794931460e+01  5.9894241224714463e+01  6.3934787956402722e+01  1.3725194379026760e+02  1.3405137851036417e+02  1.3002853974564849e+02  7.7076501224428966e+02  7.7400110767123658e+02  7.7835859017137557e+02  9.1732135374269103e+02  9.1381656570158873e+02  9.0939901547726606e+02  8.5906515936912376e+02  8.5569245028939724e+02  8.5131163705940151e+02  7.4905434584801446e+02  7.5350677972968390e+02  1.0285316854526652e+03  1.0184505692896448e+03  1.0236026932155233e+03  1.0284538734133985e+03  1.0195271516435574e+03  1.0235159317040942e+03  1.0381844954509315e+03  1.0333354731528621e+03  1.0382604697572983e+03  1.0334462661748571e+03  2.4659801425510164e+01  3.6027940413264432e+01  2.7292107783807225e+01  2.9920344403280318e+01  3.3389575291974495e+01  1.1021901250530088e+03  1.1022503331984462e+03  1.1098276268946688e+03  1.1023071094841239e+03  1.1097722009226350e+03  1.1173589184208497e+03  1.1021935753463392e+03  1.1022549297658800e+03  1.1098306235506006e+03  1.1097747576242305e+03  1.1173589184208497e+03  1.0715025088415514e+03  1.0597054206705880e+03  1.0647574650395550e+03  1.0715529692465034e+03  1.0597733078630781e+03  1.0648485325079930e+03  1.3485252629011736e+01  1.3538486313512170e+01  6.7918179137721788e+00  1.3588363993310509e+01  6.7417114329272874e+00  0.0000000000000000e+00  3.9894617304751722e+02  3.9216098398078447e+02  4.0032413342333410e+02  3.9078373458264832e+02  3.9757725777356234e+02  6.0284087175246873e+02  5.9589060839885019e+02  6.0423899214561868e+02  5.9449309308075544e+02  6.0145080238954290e+02  7.2215863707336359e+02  7.2924084380277588e+02  7.2078201348576977e+02  7.3061268760795531e+02  7.2352388176331726e+02  9.9377033278160627e+02  1.0010713313181644e+03  9.9827534760615697e+02  9.9099266729741987e+02  9.8820105941593556e+02  1.3325346201121363e+01  1.3458430470263345e+01  6.7930485193532606e+00  6.6593882477944559e+00  0.0000000000000000e+00  3.6937026652800040e+02  3.7672975293891187e+02  3.7192239084166044e+02  5.7246735469209784e+02  5.8000342673342425e+02  5.7503710089563015e+02  7.5281202752713125e+02  7.4525590284876728e+02  7.5025272913246511e+02  1.0184346510272748e+03  1.0285256838764626e+03  1.0285076636023223e+03  1.0382093308220067e+03  1.0284852384789851e+03  1.0382436810592096e+03  1.0195522793909321e+03  7.4813774656706323e+02  7.5823454615575918e+02  7.5731919514961953e+02  3.8027744480562581e+02  3.8213535916073516e+02  3.9030284508855885e+02  3.8217884711442912e+02  3.9220121388870848e+02  5.8245528111922886e+02  5.8499683961469520e+02  5.9334715179424984e+02  5.8567555940807961e+02  5.9656295908527898e+02  1.0050925756480834e+03  1.0067315180364861e+03  9.9664398807185921e+02  7.4166830851545546e+02  7.4031274420528416e+02  7.4949492245924137e+02  7.2985938697570930e+02  7.3122027713407260e+02  7.3968877473527152e+02  1.0461949374896940e+03  1.0470933405838061e+03  1.0373493904513055e+03  1.0470583302927291e+03  1.0556792822791410e+03  1.0548150268340555e+03  1.0634344365718118e+03  1.0078485340575149e+03  1.0167968823610444e+03  1.0557117051865685e+03  4.0004941579224959e+02  3.9207172825164457e+02  4.0018629275079837e+02  6.0396404170751748e+02  5.9643179395563209e+02  6.0410168648187675e+02  7.2114566071080719e+02  7.3004953313967349e+02  7.2097320655924193e+02  3.1676396877249846e+02  3.0445282403125009e+02  1.5539776259026274e+02  5.0023337034770492e+01  1.4327666200232247e+02  9.2393330592182610e+02  9.9843973085263144e+02  9.8999962864564316e+02  9.9178760507988443e+02  1.0011909256665906e+03  3.1066065113768769e+02  3.0447756625623606e+02  3.1064090210456692e+02  3.1678269243554280e+02  1.4935916819216578e+02  1.4330369962908904e+02  1.4933685317977944e+02  4.3653552006004233e+01  5.0782402150364064e+01  4.2896489721997945e+01  1.5541931863090176e+02  9.3059548402289681e+02  9.2395613154593275e+02  9.3057706683227161e+02  3.6335435947204041e+02  3.7483091925984212e+02  3.7181480425883314e+02  3.6636767021941409e+02  5.6641289376954262e+02  5.7746378746904884e+02  5.7443269766607796e+02  5.6944375565837993e+02  7.4723527135953645e+02  7.5506279405808061e+02  7.6495337557560936e+02  7.6404260522607649e+02  1.0899373256758904e+03  1.0769594087657586e+03  1.0861780171864796e+03  1.0824201227695416e+03  1.0807188178963981e+03  1.0899381862378586e+03  1.0769765323231600e+03  1.0861805985626545e+03  1.0807380366525981e+03  1.0674905084060611e+03  1.0674634831149674e+03  2.5363949288305307e+02  2.4569523903995614e+02  2.5052398462935423e+02  8.6937007672957486e+02  8.6083863304927172e+02  8.6602807143215989e+02  9.3715591926035040e+02  6.5596500072324034e+02  6.6874817559854591e+02  9.3717375439650129e+02  6.6232232248878097e+02  6.5594650265083146e+02  6.6234736731274461e+02  6.6872400313949061e+02  4.5699731065995456e+02  4.6583510291166641e+02  4.6359268880483796e+02  4.5923864339688015e+02  5.4037979338678076e+02  5.3108819211627724e+02  5.4126119075449685e+02  2.8341390989122050e+02  2.8259217895471050e+02  2.9241870118257407e+02  3.3780583177844653e+02  3.2874387498175957e+02  3.3868049257030225e+02  4.8459698742580770e+02  4.7537292091395767e+02  4.8548547560337028e+02  6.9854669919866510e+01  6.1109233114236496e+01  7.0699126017777559e+01  1.2266279597089473e+02  1.2185826370813362e+02  1.3148292941734772e+02  1.7591790686688793e+02  1.6704987051542906e+02  1.7677614178978328e+02  2.2946996994284515e+02  2.2865377295583957e+02  2.3841383927227267e+02  8.4342689274506472e+02  8.4254723311111616e+02  8.5303118389201802e+02  9.0134749075357502e+02  9.0046332063922898e+02  9.1101934064180205e+02  7.8599799418198666e+02  7.7645081284758191e+02  7.8690456110144476e+02  3.7411049810592726e+02  3.6565281032395109e+02  3.6794016040241149e+02  5.7690834187207588e+02  5.6888825684760877e+02  5.7135582853315077e+02  5.1050871573026882e+02  5.0450978471881695e+02  5.1123137825283965e+02  5.0378796074209242e+02  5.0978712214699590e+02  8.1406101583384736e+02  8.0717391605267380e+02  8.1472989202319366e+02  8.0649541294189612e+02  8.1340537940514298e+02  8.1540268804121627e+02  8.2228596327803859e+02  8.2296225125037790e+02  8.1607798289453024e+02  5.2127144939789991e+02  5.1409553108051045e+02  5.1840710495270480e+02  3.7596642365970462e+02  5.8012479695393131e+02  3.6784609197930997e+01  3.9515554083832831e+02  5.9897066032991324e+02  9.9636326003422982e+02  7.2600465032662669e+02  3.7111378969235682e+02  5.7458288611672413e+02  4.4735339230327941e+02  4.4954157443197391e+02  4.5481375426188237e+02  6.2065387894477408e+02  6.3158528116104515e+02  6.2147459308787222e+02  9.7370821900881367e+02  9.6233947527231726e+02  9.7286878428225475e+02  7.0397804929405061e+02  6.9305002164286884e+02  7.0324669019525049e+02  4.1654924323101028e+02  4.2711349848790542e+02  4.1724065666780325e+02  2.0272729203744854e+02  2.0979513367847366e+02  2.0276009110012046e+02  2.0976258982383334e+02  2.0269402837364839e+02  1.9569090450881762e+02  1.9565738863747006e+02  9.6285384529599042e+01  1.0325642380366664e+02  9.6315516030795635e+01  1.0322596980677960e+02  9.6254902111811305e+01  8.9344446271523069e+01  8.9314399196834785e+01  1.0729266347515522e+03  4.2940564056410534e+02  4.2864509941463018e+02  4.3857484387113607e+02  9.5973723251690046e+02  9.5000953803066159e+02  9.6057403574993418e+02  6.9070591747698097e+02  6.8125971447551080e+02  6.9150250782719650e+02  6.3403253525229240e+02  6.3325479054299183e+02  6.4342064213821402e+02  5.2253369579037110e+02  5.1688071854876273e+02  5.1615924119888041e+02  8.2612084894300381e+02  8.2042521746600517e+02  8.1975774433506228e+02  8.0334840586605731e+02  8.0903790572220487e+02  8.0971097587074337e+02  2.5783665535199793e+02  2.4884346668676721e+02  2.5094195370748682e+02  2.5574126759598127e+02  8.7386967975893560e+02  8.6421588373187649e+02  8.6646521433080397e+02  8.7162292737816290e+02  0.0000000000000000e+00  0.0000000000000000e+00  6.7934119711463987e+00  1.1173589184208497e+03  1.1173589184208497e+03  1.1098311010694640e+03  1.1173589184208497e+03  0.0000000000000000e+00  3.9647277397115732e+02  6.0028783827772145e+02  9.9533908032177226e+02  7.2492969152482999e+02  1.0960608423480642e+03  1.0961193079440261e+03  1.0960643853635579e+03  1.0961212761614631e+03  5.3218924412968200e+01  4.5054878904469746e+01  5.2872665014187355e+01  5.2551467135602692e+01  4.5414056183383991e+01  3.7592659506136656e+01  4.0829684674457098e+02  4.0843667225678212e+02  6.1230775632945199e+02  6.1244606003559829e+02  7.1256062537291677e+02  7.1237827623506564e+02  9.8274233267065415e+02  9.8095384787054513e+02  3.5943536110930955e+02  3.5714580290707698e+02  5.6256266257987750e+02  5.6009821883222116e+02  3.4862148565973918e+01  3.6261310781053510e+01  4.3690204894319422e+01  1.9068709123756619e+01  1.9125890092138167e+01  2.6216306806629723e+02  2.6425731541756778e+02  8.7852173832550397e+02  8.8076768267457601e+02  2.3806884680910279e+01  1.8562691862328215e+01  1.8695988997558029e+01  2.5952177561004140e+02  2.6805269365030534e+02  2.6545291676015825e+02  8.7568902865976895e+02  8.8484859109430056e+02  8.8205522599057701e+02  4.1262001625628130e+02  4.0646915903280302e+02  4.0509697452447494e+02  6.1708793494678503e+02  6.1066073443356868e+02  6.0926719215731885e+02  7.0770940418499572e+02  7.1424322174700603e+02  7.1561594340199633e+02  9.7804216641988739e+02  9.8312171863456115e+02  9.8589651257637684e+02  3.6196232955844897e+02  3.5346763938439005e+02  3.5595479369538879e+02  5.6520358303566445e+02  5.5642085959694168e+02  5.5903918851014146e+02  3.4118749755684334e+01  2.5393679647167165e+01  2.6119920771262542e+01  8.8211136222906634e+02  8.7205964572278276e+02  8.6793830850530867e+02  8.6201379715032033e+02  8.7799128409935986e+02  1.4940367327520471e+02  1.5420484879889094e+02  1.5905057810390770e+02  1.4456080483667924e+02  1.3976657714537245e+02  3.1955664711617788e+02  3.1020363035889864e+02  3.0575790342358999e+02  3.0086212274712233e+02  3.1510898348813805e+02  1.9394933887568479e+02  2.0275045358973517e+02  2.0715959622524741e+02  2.1156529688090208e+02  1.9835426942685081e+02  8.7619934057859453e+01  9.6304249964938734e+01  1.0065460556172800e+02  1.0500075727969028e+02  9.1967383531167826e+01  2.6551372544924800e+02  2.5231682168404160e+02  2.6167633702546789e+02  2.5615564705421832e+02  2.4680303157859731e+02  3.5384431769343962e+02  3.5860272991133030e+02  3.6160219085976820e+02  5.5722675354622061e+02  5.6182145947472839e+02  5.6484338370118849e+02  7.6897164782501193e+02  7.6314250800293144e+02  7.6089343792189345e+02  4.4597087163086877e+02  4.5148501328795777e+02  4.5372124790192959e+02  5.0242913713771486e+02  5.0683270775783399e+02  5.0969665092290711e+02  4.5985345396972934e+02  4.6203211822277694e+02  4.6706750768421148e+02  6.5247186924542734e+02  6.6737026890559696e+02  6.5739572107498975e+02  6.6244357707870176e+02  6.7242209460977006e+02  9.4080075417711589e+02  9.3042750444603746e+02  9.2532815951735120e+02  9.2006800897678306e+02  9.3569911068313934e+02  3.3753381228593689e+01  4.0627657316563301e+01  3.4524396547525595e+02  3.4776770747248122e+02  4.9208059750037359e+02  5.0044886337190263e+02  4.9473391138909705e+02  5.0308510867156104e+02  1.8312707515212290e+02  1.9117157210715064e+02  1.8566963122245471e+02  1.9368878046646452e+02  7.9369811047751364e+02  8.0240148125414430e+02  7.9645459329256494e+02  8.0513851353570487e+02  2.2233380507143110e+02  2.1421155794721071e+02  2.1970840628501873e+02  2.1161882009826741e+02  8.9362530498597937e+02  8.9079435315715079e+02  8.3575495554872884e+02  8.2703622338267746e+02  8.3294212952307021e+02  8.2426518502625652e+02  1.1562598932905301e+02  1.0761471966113608e+02  1.1303638493269865e+02  1.0505919057968320e+02  7.6957681474434864e+01  8.4892298716358653e+01  7.9467984237713637e+01  8.7375783441148798e+01  2.7622714261920663e+02  2.7358893399296005e+02  5.4794875873563763e+02  5.5055267813790442e+02  6.2384871935713238e+02  6.1798347544061846e+02  6.1534264541406390e+02  6.2655169895616643e+02  7.0094396685305810e+02  7.0684566314440019e+02  7.0967675784223866e+02  6.9812691042082406e+02  9.7032223748578508e+02  9.7649008938072791e+02  9.7922159864262028e+02  9.6755659837313078e