<?xml version="1.0"?>
<VTKFile type="UnstructuredGrid"  version="0.1"  >
<UnstructuredGrid>
<Piece  NumberOfPoints="2690" NumberOfCells="4864">
<Points>
<DataArray  type="Float64"  NumberOfComponents="3"  format="ascii">-5.095522281501213 22.0208568767973 0  -5.681751197890479 21.28353909128943 0  -5.09366076202355 21.52256130850282 0  -5.091400497859319 21.02093786910678 0  -5.683662277225402 21.7839302127867 0  -6.271735419194632 21.54364106138843 0  -9 21.99999999996945 0  -8.410824479177512 21.26685860759157 0  -9 21.49999999997139 0  -9 20.99999999997333 0  -8.411163129984059 21.76683449929003 0  -7.822009464872824 21.53361356223454 0  -9 32.9999999999446 0  -8.418211270325628 32.26678986979426 0  -9 32.49999999994358 0  -9 31.99999999994255 0  -8.418549209120691 32.76679667079861 0  -7.836779138011813 32.5335427253671 0  -5.144507768587331 33.02252496949034 0  -5.642920669042824 32.31865245918502 0  -5.142575368786262 32.52552896047019 0  -5.140130544244117 32.0217944490217 0  -5.644905911900814 32.81923489987268 0  -6.145232543373243 32.61270180067823 0  -5.239989405932278 54.02143329030121 0  -5.809705976629918 54.75792672437347 0  -5.807814631866595 54.25882801501317 0  -6.375293184853472 54.49308271600653 0  -5.242258632535096 54.52305763463902 0  -5.244170970275595 55.02162370551061 0  -9 54.99999999998974 0  -8.50187511831629 54.29978621854102 0  -9 54.49999999998872 0  -9 53.99999999998769 0  -8.502177549104882 54.79969445154967 0  -8.004116489329057 54.59941901493768 0  -9 39.99999999995897 0  -8.42395347574708 40.74171797917271 0  -8.423615303972989 40.24172320616126 0  -7.847554333279175 40.48338247229888 0  -9 40.49999999996 0  -9 40.99999999996102 0  -5.180443640144766 41.01987882391363 0  -5.728341766220502 40.28924703839187 0  -5.17852302673105 40.52313909848756 0  -5.176280966721047 40.02240563935315 0  -5.73025345890901 40.78891033795201 0  -6.280062073391457 40.55427883704916 0  -9 55.99999999999179 0  -8.458101286920998 56.74722667038537 0  -8.457803162987094 56.24716826600108 0  -7.915918272391729 56.49433664211367 0  -9 56.49999999999282 0  -9 56.99999999999384 0  -5.249162537253312 56.02044013646636 0  -5.794185822359287 56.76385635867047 0  -5.792334100205468 56.26376624612521 0  -6.33508858975612 56.50449913357703 0  -5.251572130151695 56.52374846174492 0  -5.253480360001198 57.02170106291295 0  -7.511610968121108 43.01181844056656 0  -6.704271197712286 43.12663806262118 0  -7.285091909325936 43.35116301576743 0  -7.058744535806773 43.69052251645618 0  -6.930609718042032 42.78716262396449 0  -6.349313741017021 42.5625170626638 0  -6.694320431824172 49.02235246361065 0  -7.496145922405497 48.90627498575027 0  -6.919053739406029 48.68285218571484 0  -7.143994711262232 48.34328225826017 0  -7.271226304927428 49.24573257624908 0  -7.847805359443591 49.4692718899373 0  -6.68613079891751 46.02098857417285 0  -7.490806600281996 45.90538820690629 0  -6.911706624714752 45.68123527687291 0  -7.137472682690601 45.34159053767806 0  -7.265051964697079 46.24501558136514 0  -7.843672669914058 46.46896464745745 0  -6.580568361264225 7.021698723167696 0  -7.421967151200951 6.905954263192549 0  -6.816481749453594 6.682186420197401 0  -7.052586625498116 6.342678673139346 0  -7.185873995465862 7.245457570533951 0  -7.790881235999382 7.469202150103404 0  -7.488823817759975 30.01168604816885 0  -6.669110347201015 30.1263392396936 0  -7.258839851898281 30.35070693235049 0  -7.029034720796233 30.68965349333778 0  -6.898916085615094 29.78724776898494 0  -6.308702012527682 29.56292890391356 0  -6.572902482245111 4.020650528504178 0  -7.417365717384224 4.121645465941094 0  -6.811125666281676 4.356149123828907 0  -7.049200204286761 4.691580668794682 0  -7.179301369520193 3.786173100238368 0  -7.785957296846594 3.551829469717638 0  -6.588458682004461 10.02187822138802 0  -7.4274738581275 10.12246667638785 0  -6.82519251637917 10.35710396067276 0  -7.06176803383999 10.69233125614751 0  -7.190882170835733 9.787262034530242 0  -7.793616182785225 9.552618443297197 0  -6.596371386958428 13.02208074424449 0  -7.432258360454499 12.90626165597867 0  -6.83072521150612 12.68257566954343 0  -7.06526929531895 12.34307692487755 0  -7.197717261945423 13.24579126650938 0  -7.798774851732994 13.46944179987024 0  -6.604343940128378 16.02241785570487 0  -7.437473809487861 15.90636217238041 0  -6.837914580362003 15.68293828220305 0  -7.071682081622235 15.34340363908442 0  -7.203724587446359 16.24581595000761 0  -7.802793204449443 16.4693400510653 0  -6.612614699016 19.02008225945496 0  -7.443255532456801 19.12105823003804 0  -6.847078837537462 19.35494211006519 0  -7.081345050308736 19.68992939800573 0  -7.208970485924486 18.78600432226983 0  -7.80565938072041 18.55186910225911 0  -6.634338112033248 27.01933384542252 0  -7.457426358226631 27.12059055142376 0  -6.866632300031648 27.35461924479919 0  -7.098757484596246 27.68993548109795 0  -7.225300594163721 26.78515408015375 0  -7.816561532866356 26.55115071273895 0  -8.284230159483375 19.09981643100904 0  -8.045022201475069 18.82580963514133 0  -8.402640720115071 18.27599319422586 0  -8.641885471861743 18.55000036904758 0  -9 17.99999999998495 0  -8.290749721627074 27.09958086971019 0  -8.053729289083869 26.82536852615776 0  -8.408099042577309 26.27555579400263 0  -8.645154284617107 26.54978638061574 0  -9 25.99999999995395 0  -8.2815978638658 15.91275063060505 0  -8.042119947106622 16.19105724177481 0  -8.401580194018706 16.73462311120075 0  -8.641021316535349 16.45634118992052 0  -9 16.99999999998883 0  -5.838695191846176 30.11944358740937 0  -6.073619030263117 29.84116453391672 0  -5.718014433076698 29.29684926015458 0  -5.483088613876586 29.57611509861719 0  -5.126362911621539 29.02086403637635 0  -8.279195908476039 12.91274081761702 0  -8.038911567633233 13.19108694673004 0  -8.399564780743646 13.73473002803185 0  -8.639815442356115 13.45638054920926 0  -9 13.99999999999401 0  -8.276974251646989 10.10047669373304 0  -8.035366783194661 9.826548382553845 0  -8.39662880395232 9.276305889162359 0  -8.638272791695369 9.550234230408417 0  -9 8.99999999999857 0  -8.272342708589564 4.100087870902854 0  -8.029214123702182 3.825975952683994 0  -8.392835492701566 3.27588451158535 0  -8.635983410744473 3.550000733545306 0  -9 2.999999999998668 0  -8.274467408632864 6.912587019351237 0  -8.03260083423508 7.190890461439693 0  -8.395617181122095 7.734607178677057 0  -8.637449076425836 7.456306223530345 0  -9 7.999999999999485 0  -8.306117384265834 45.91232605892485 0  -8.074820486062759 46.19062063054763 0  -8.422017590769034 46.73452115341684 0  -8.65327868438116 46.45622882313717 0  -9 46.99999999997333 0  -8.308574776823532 48.91269873887063 0  -8.078111569576048 49.19099748886273 0  -8.4240923551652 49.73458664987913 0  -8.654517613884254 49.45631850678941 0  -9 49.99999999997949 0  -5.88642909797082 43.11970165386798 0  -6.117790058345805 42.84110687174295 0  -5.767544795499963 42.29614857228218 0  -5.536192356316469 42.57584806195172 0  -5.184765359374929 42.01999833983655 0  -5.811649948261064 23.94210996769963 0  -6.054803605899337 24.20758360681042 0  -5.703390608569845 24.75186018869884 0  -6.297796511766221 24.4731286514855 0  -5.460378379276482 24.48737498721498 0  -5.108944776218462 25.02068739792974 0  -8.315747907932415 52.08952322315027 0  -8.081023807445517 51.82391914974492 0  -8.422874472869697 51.27924639768047 0  -7.846143323292791 51.55837468485845 0  -8.657642147742528 51.54484928673936 0  -9 50.99999999998153 0  -5.863433078025733 38.10918618417555 0  -6.100835244228394 37.83905777578662 0  -5.750797625926972 37.29944287404597 0  -6.338392732044644 37.56899000356044 0  -5.513391496941153 37.57077034697598 0  -5.162150376211275 37.01906526061555 0  -5.851781728185243 34.94191075137231 0  -6.091905394254579 35.20723369753408 0  -5.744970509946292 35.7512457894591 0  -6.331868804561406 35.47262317351068 0  -5.50497459904078 35.48706362554118 0  -5.158052902602403 36.01969052723306 0  -7.946085391153367 50.50988809482683 0  -7.896079384103023 51.0341582078627 0  -8.473204173921506 50.75488865496752 0  -6.232125261176423 36.52058779034856 0  -6.285281814140762 37.0446598869778 0  -5.697288612833478 36.7735076034805 0  -6.281964814838722 35.99646229646729 0  -5.695346053296285 36.27325754739796 0  -6.060084634691889 25.28261494194456 0  -6.178897707620778 24.87791393187786 0  -5.584733348708016 25.15547013804433 0  -8.054827042139918 25.75331525766381 0  -7.935640346096299 26.15223218747609 0  -8.527480337617519 25.87666118300231 0  -7.020017240370144 34.39112726367694 0  -6.675722918889981 34.93199972204632 0  -6.923611674947764 35.25449072657401 0  -7.267934856513105 34.7137943048864 0  -7.515662893938874 35.03642368876169 0  -7.170932647699978 52.63928489597965 0  -7.508306027610321 52.09894362969065 0  -7.265459804956829 51.77677698483679 0  -6.928108510161163 52.31718478812725 0  -6.685085274079682 51.99514381650172 0  -7.029849440045603 38.63918617759252 0  -6.684341853410895 38.10420964115179 0  -6.929734607665387 37.77763188087732 0  -7.275222161118184 38.31279645424753 0  -7.520782218119897 37.98635943229309 0  -6.994798552124258 23.39123851026056 0  -6.646081614856278 23.93226104120722 0  -6.897103979688228 24.25484812392261 0  -7.245853360258966 23.71397384469752 0  -7.496721025547633 24.03665054613634 0  -7.904959457515699 17.50978288187654 0  -7.85527576305469 18.03085751365564 0  -8.452637294097231 17.75483484148213 0  -7.853904858894648 16.98957287207119 0  -8.452322455005499 17.25492295731228 0  -7.894003227187958 8.510004654669313 0  -7.84378210093197 9.03131358413837 0  -8.44714994537455 8.755004476399844 0  -7.934317497789149 2.424290323183604 0  -7.860078549431203 2.988033655200889 0  -8.467297853881192 2.712174221669525 0  -7.842471931907873 7.989608869555702 0  -8.446849435151613 8.254995308421361 0  -7.896975902124358 49.98959240324804 0  -8.472879771116256 50.25497738772397 0  -6.162976391221085 41.61330878464057 0  -6.256200195645407 42.08800729
[...]
<PointData  Scalars="f_29"> 
<DataArray  type="Float64"  Name="f_29"  format="ascii">3.2085963980986486e+02  3.0972757417783600e+02  3.1329068128700243e+02  3.0573772813483151e+02  3.1725162929243021e+02  3.1365507319669581e+02  3.2071373681961472e+02  3.0958773810466863e+02  3.1314278079346235e+02  3.0558279087803118e+02  3.1711402595554625e+02  3.1357132533592863e+02  4.8811110638233185e+02  4.7667686572346702e+02  4.8032956877479597e+02  4.7256152433599942e+02  4.8441231863485888e+02  4.8076817328160945e+02  4.8821594668290919e+02  4.7733191572796176e+02  4.8047022032423143e+02  4.7275024713357118e+02  4.8505228740335536e+02  4.8189326642481240e+02  8.2056350140863458e+02  8.3266102758682143e+02  8.2450290243722282e+02  8.2835851194749716e+02  8.2875352953954530e+02  8.3698175724692487e+02  8.3681715711657841e+02  8.2534525749119382e+02  8.2864948352115755e+02  8.2048263768919389e+02  8.3350232530802816e+02  8.3020398749429239e+02  5.9690998688824391e+02  6.0862800415873949e+02  6.0074038216961333e+02  6.0451488557950609e+02  6.0484591452075551e+02  6.1277355606088031e+02  6.1291414822254217e+02  6.0134042768420193e+02  6.0499547913246988e+02  5.9706740649232620e+02  6.0924096841788719e+02  6.0555903415256034e+02  8.5309486613280023e+02  8.6532688685511539e+02  8.5713930819943982e+02  8.6114292532466459e+02  8.6129475830863169e+02  8.6953747462777892e+02  8.5323008006787313e+02  8.6543059204044130e+02  8.5724841948554536e+02  8.6120970721600622e+02  8.6142151233316110e+02  8.6966779342185544e+02  6.4434710698467177e+02  6.4608231062271250e+02  6.4968815003658347e+02  6.5503599043782799e+02  6.4074833280458415e+02  6.3714934794745261e+02  7.3983722143363150e+02  7.3806528507121834e+02  7.3442062858227166e+02  7.2900883217898593e+02  7.4348758223665243e+02  7.4713332800583623e+02  6.9194311464640100e+02  6.9018221691855319e+02  6.8657324773219841e+02  6.8120499879293129e+02  6.9555903397415170e+02  6.9917163450206760e+02  1.0001223834721598e+02  9.8410570195566777e+01  9.5141304635972759e+01  9.0273640731243731e+01  1.0328714651756938e+02  1.0655775085477788e+02  4.4193944176050513e+02  4.4362225244034687e+02  4.4711817501099932e+02  4.5230456166972397e+02  4.3845329427443193e+02  4.3496792502801998e+02  5.6943572206476503e+01  5.8459525929425261e+01  6.1761073285402674e+01  6.6580511014621734e+01  5.3647876899289756e+01  5.0352473572641280e+01  1.4344524441533645e+02  1.4497881828960615e+02  1.4834017582173090e+02  1.5323639439469460e+02  1.4008854174422027e+02  1.3673507437850949e+02  1.8720432606342001e+02  1.8557536342872814e+02  1.8225549496452371e+02  1.7730989768392641e+02  1.9052896716371981e+02  1.9385012311350877e+02  2.3130232082554326e+02  2.2966703047235549e+02  2.2631353298935292e+02  2.2132943504765518e+02  2.3466135079823306e+02  2.3801568391380582e+02  2.7579922270557364e+02  2.7738963709416856e+02  2.8082767448823171e+02  2.8586136210607145e+02  2.7237094782768065e+02  2.6894012199647779e+02  3.9620534583041149e+02  3.9782648855109716e+02  4.0132899837277421e+02  4.0645622565444728e+02  3.9271156645044704e+02  3.8921399334884791e+02  2.7714010760065509e+02  2.7304121137985078e+02  2.6489916453304266e+02  2.6898502460460617e+02  2.6088305626878429e+02  3.9757617140797157e+02  3.9339515922561878e+02  3.8508883482869010e+02  3.8925730754739533e+02  3.8098036494138415e+02  2.2983119132263499e+02  2.3392233395105535e+02  2.4197651031002781e+02  2.3787846788227304e+02  2.4589957498406858e+02  4.4340563425521009e+02  4.3918950976804467e+02  4.3086739256972703e+02  4.3503602734901898e+02  4.2679141287412625e+02  1.8573292450694933e+02  1.8979036951978816e+02  1.9777263002365905e+02  1.9371757052239289e+02  2.0167801451522283e+02  1.4472751025252629e+02  1.4073222860159191e+02  1.3278886931710542e+02  1.3677217486779350e+02  1.2886939649599270e+02  5.8218235166989679e+01  5.4285635175839118e+01  4.6467448223309304e+01  5.0396884333129584e+01  4.2623148843661653e+01  9.8565351730312486e+01  1.0256051557826707e+02  1.1042075188037089e+02  1.0641963791014928e+02  1.1424596478707552e+02  6.9036168568044275e+02  6.9476548207404153e+02  7.0343784370942649e+02  6.9903587748201369e+02  7.0768656427643521e+02  7.3824826303971656e+02  7.4268966701200804e+02  7.5143811539183207e+02  7.4698986866380699e+02  7.5570666042223195e+02  6.4586221194723566e+02  6.4150824970985423e+02  6.3291579388918035e+02  6.3722221866677819e+02  6.2871409518327084e+02  3.4955165846893800e+02  3.5359544620072325e+02  3.6179964592356623e+02  3.5763713647478920e+02  3.5771860101062981e+02  3.6595072857526225e+02  7.8943847820936242e+02  7.8512437703959665e+02  7.7637081638513519e+02  7.8080927171083533e+02  7.8067159034646795e+02  7.7195654495407655e+02  5.6705356483896469e+02  5.6288111281849490e+02  5.5447970700435314e+02  5.5870591307667894e+02  5.5859698766159499e+02  5.5028763878767052e+02  5.1775020750454439e+02  5.2191032604888085e+02  5.3034245636696710e+02  5.2606904785849326e+02  5.2613810104211416e+02  5.3459009416707033e+02  7.6388976438401619e+02  7.7234984246764839e+02  7.6789796455549185e+02  5.4240998793101471e+02  5.5055653146177724e+02  5.4633494857980395e+02  5.3423036222567225e+02  5.3852277341548779e+02  3.6988756308575586e+02  3.6375731262829072e+02  3.6794950333009490e+02  3.7713947732879330e+02  3.8317649016504402e+02  3.7904044721927733e+02  5.0937786347101195e+02  5.1771358614911560e+02  5.2274295317757310e+02  5.1439725910736286e+02  5.1941923145842293e+02  7.9823331749036413e+02  7.8951391952926019e+02  7.8427692620497453e+02  7.9298796195689704e+02  7.8774737003441555e+02  5.7548213531005183e+02  5.6708070920568753e+02  5.6200877769191368e+02  5.7039961519800272e+02  5.6531969317524079e+02  3.4140122802079401e+02  3.4950885139116536e+02  3.5439644403241630e+02  3.4627938287194576e+02  3.5115932885043139e+02  2.5344583255669571e+02  2.6119288305421719e+02  2.5713828556100748e+02  2.4572285672325427e+02  2.4969662128031348e+02  1.2161721769240813e+02  1.2917681391257346e+02  1.2521663705790523e+02  3.4278854886293637e+01  4.2316298640514077e+01  3.8429376163950280e+01  1.1407999126374891e+02  1.1795493081117154e+02  7.5550358300376126e+02  7.5982118642226771e+02  6.2222568437020743e+02  6.2968434629188846e+02  6.2545782665284923e+02  3.6122581269476240e+02  3.5943390929292923e+02  3.5618879839010589e+02  7.7482423215399024e+02  7.7781640571621028e+02  7.8128407990905487e+02  5.5290762003008285e+02  5.5580811527543710e+02  5.5910909722662143e+02  5.3184895065876083e+02  5.2896153605817403e+02  5.2562933646743704e+02  4.2273314981211877e+02  4.2884795443278102e+02  4.2475155034523226e+02  6.5562725824293079e+02  6.4637126893422908e+02  6.5533418696456738e+02  7.2840635329360737e+02  7.3776187154578849e+02  7.2870877917272367e+02  6.8059917348101101e+02  6.8987924516952637e+02  6.8090330707047258e+02  8.9722409651504378e+01  9.8132983393768100e+01  9.0000025643742532e+01  6.7050421583083789e+01  5.8696207696944725e+01  6.6817719824367771e+01  4.5299654741660754e+02  4.4396371043085236e+02  4.5265408453595546e+02  1.5370815269904529e+02  1.4521674627700483e+02  1.5347438105309408e+02  1.7674808426425852e+02  1.8529288403625043e+02  1.7703090796467049e+02  2.2077062236395923e+02  2.2938563480096317e+02  2.2105126324139974e+02  2.8647594170820503e+02  2.7769982429233141e+02  2.8617289639571641e+02  4.0696405513006283e+02  3.9808174687245736e+02  4.0671260037982518e+02  3.8429373251473999e+02  3.8675348917667583e+02  3.9024758711511822e+02  2.6351476136052349e+02  2.6622742024116326e+02  2.6965462383455412e+02  2.4336848948202933e+02  2.4069354850189595e+02  2.3733308261769847e+02  4.2980863624067325e+02  4.3239050652714053e+02  4.3587043004090577e+02  1.9899722252968502e+02  1.9642440307727452e+02  1.9309836792315247e+02  1.3155557210093082e+02  1.3414570720848442e+02  1.3749735684278460e+02  4.7128792888978943e+01  4.8741396041796150e+01  5.2034517329003712e+01  1.1178646446011068e+02  1.0917350075466101e+02  1.0589639892587573e+02  6.3180627567781619e+02  6.3447904442864046e+02  6.3807399353336791e+02  7.5294218985816133e+02  7.5003926657094974e+02  7.4638717093690036e+02  7.0475384989633312e+02  7.0196340102850991e+02  6.9834552199778955e+02  6.1389341574948730e+02  6.1756850186904330e+02  8.4507590424621594e+02  8.3671960308363361e+02  8.4098965808601304e+02  8.4500240897803155e+02  8.3760215090275096e+02  8.4090554975791031e+02  8.5307147529503925e+02  8.4904777719229139e+02  8.5314343552197806e+02  8.4915303109341744e+02  2.0060016266812870e+01  2.9312148476074491e+01  2.2203332057146749e+01  2.4342931626127225e+01  2.7163448027881159e+01  9.0616828751518210e+02  9.0621879991249796e+02  9.1250867849307929e+02  9.0626629295648638e+02  9.1246239475402081e+02  9.1876081221498760e+02  9.0617054343054303e+02  9.0622264119076476e+02  9.1251120927162378e+02  9.1246420154737234e+02  9.1876081221498760e+02  8.8070310640639775e+02  8.7091861225646733e+02  8.7510544743203320e+02  8.8075206348277993e+02  8.7098338930648879e+02  8.7519280320155394e+02  1.0967621935808600e+01  1.1012429874761430e+01  5.5244901173496359e+00  1.1053704638591796e+01  5.4829212722822609e+00  0.0000000000000000e+00  3.2583055590135854e+02  3.2026866072598966e+02  3.2696434029752464e+02  3.1913511749661592e+02  3.2470398999897373e+02  4.9336150655359023e+02  4.8764229482068083e+02  4.9451584508742604e+02  4.8648829836136900e+02  4.9221360636364523e+02  5.9169014298915761e+02  5.9753482910447360e+02  5.9055769126054770e+02  5.9866311517280906e+02  5.9281310211002676e+02  8.1626309443552748e+02  8.2231473485039203e+02  8.1999374490730190e+02  8.1395827466462367e+02  8.1164199483163929e+02  1.0838510986362627e+01  1.0947776651767002e+01  5.5255858931381550e+00  5.4160744634320679e+00  0.0000000000000000e+00  3.0159439130389654e+02  3.0762771797697377e+02  3.0368909134814044e+02  4.6836282802460767e+02  4.7456461191757245e+02  4.7047413728054812e+02  6.1698165527790866e+02  6.1074676277968285e+02  6.1486626266197186e+02  8.3670410511891123e+02  8.4507012734994930e+02  8.4505295510044971e+02  8.5309490639254705e+02  8.4503174519993968e+02  8.5312746683531282e+02  8.3762598866568283e+02  6.1313390701279752e+02  6.2146664332086084e+02  6.2070822416052397e+02  3.1052919935166301e+02  3.1204931904648328e+02  3.1874831130568060e+02  3.1209121615133103e+02  3.2030732918305949e+02  4.7658833139020180e+02  4.7867728167596118e+02  4.8555174868618104e+02  4.7924149513623757e+02  4.8820088142450714e+02  8.2564141521746649e+02  8.2700286231708401e+02  8.1863920562449732e+02  6.0779232796973236e+02  6.0667661504530179e+02  6.1425124012407957e+02  5.9805011474405558e+02  5.9917074004284791e+02  6.0615625204580147e+02  8.5971898953434356e+02  8.6046612864953579e+02  8.5238415358749978e+02  8.6043289346205688e+02  8.6758207334271560e+02  8.6686756081347141e+02  8.7401584336231110e+02  8.2792364678759702e+02  8.3534414634529992e+02  8.6761295638532954e+02  3.2674441724076945e+02  3.2020497264021310e+02  3.2685455651031657e+02  4.9429464432425357e+02  4.8809610193484644e+02  4.9440582417124205e+02  5.9086222605169564e+02  5.9821012885563619e+02  5.9071822616942165e+02  2.5848179679412289e+02  2.4840297348429155e+02  1.2658759932325255e+02  4.0704323414185616e+01  1.1669804123708046e+02  7.5841206480474250e+02  8.2012453468474143e+02  8.1313010005950389e+02  8.1460873758492278e+02  8.2240261706382717e+02  2.5348801416496318e+02  2.4842643954515765e+02  2.5346897163004382e+02  2.5850015176976149e+02  1.2166364355920501e+02  1.1672336008633732e+02  1.2164247562205757e+02  3.5521325363269320e+01  4.1324928235032715e+01  3.4902935851163278e+01  1.2660838162032465e+02  7.6393006868164082e+02  7.5843404022453490e+02  7.6391194364453406e+02  2.9665576807452493e+02  3.0606805236752405e+02  3.0359165993722098e+02  2.9912972761894059e+02  4.6338776736666449e+02  4.7247745914401946e+02  4.6998685555160148e+02  4.6587836501840286e+02  6.1238283336523125e+02  6.1884274480199463e+02  6.2701150089074633e+02  6.2625752675456613e+02  8.9599942108132871e+02  8.8523208506043875e+02  8.9288098571687863e+02  8.8976380488621589e+02  8.8834990664741235e+02  8.9600106024694742e+02  8.8524894979100839e+02  8.9288387261810851e+02  8.8836930893360466e+02  8.7738150352634341e+02  8.7735544258351251e+02  2.0682880541816709e+02  2.0033499001585142e+02  2.0427769330446640e+02  7.1326755560517961e+02  7.0621467662962334e+02  7.1050068521017533e+02  7.6935819062239489e+02  5.3712078135208628e+02  5.4765491755149708e+02  7.6937605732696454e+02  5.4235660795012711e+02  5.3710269252378623e+02  5.4238047926574666e+02  5.4763230721056914e+02  3.7346465444381022e+02  3.8071685808710441e+02  3.7887918399642399e+02  3.7530134267785860e+02  4.4197663404211545e+02  4.3433555582875073e+02  4.4270237910193606e+02  2.3117334722841306e+02  2.3050418756025053e+02  2.3854204154088254e+02  2.7570510732883861e+02  2.6828199516604451e+02  2.7642453296448048e+02  3.9611532773378400e+02  3.8853945155745504e+02  3.9684784186302090e+02  5.6841160734010451e+01  4.9719934753552984e+01  5.7531838878582732e+01  9.9873700149528261e+01  9.9220820699248833e+01  1.0706647885524259e+02  1.4332352855018277e+02  1.3608506817730193e+02  1.4402735399129764e+02  1.8706374531241525e+02  1.8639996310476781e+02  1.9437378628708066e+02  6.9181343871841545e+02  6.9108935797238030e+02  6.9975237897872796e+02  7.3970943253163603e+02  7.3898091138554480e+02  7.4771328539736476e+02  6.4438557381465080e+02  6.3650084926639317e+02  6.4513537597626589e+02  3.0546952399863812e+02  2.9853644836593423e+02  3.0040742421843026e+02  4.7202705560455951e+02  4.6542780751613532e+02  4.6746088768886085e+02  4.1741375871628310e+02  4.1248528071906441e+02  4.1801149981660035e+02  4.1188838111418710e+02  4.1681690008855475e+02  6.6756791120751927e+02  6.6187638569522449e+02  6.6811575876206109e+02  6.6131984631426064e+02  6.6703252278648915e+02  6.6866726376407803e+02  6.7435533558903830e+02  6.7490983411701018e+02  6.6922091885125485e+02  4.2626723136176315e+02  4.2036900382417247e+02  4.2390969576838171e+02  3.0698793861634971e+02  4.7467658909163259e+02  2.9930024868967415e+01  3.2271539088179634e+02  4.9016937776471337e+02  8.1841476009057760e+02  5.9485785268461984e+02  3.0300538777114429e+02  4.7011862094084938e+02  3.6555119244304393e+02  3.6734424097497583e+02  3.7167588813175286e+02  5.0803179632768581e+02  5.1703347236397508e+02  5.0870661706038510e+02  7.9962844743635162e+02  7.9021092462182162e+02  7.9893543147097068e+02  5.7669832312119672e+02  5.6768564310469151e+02  5.7609404651658974e+02  3.4027260566870007e+02  3.4893877679743366e+02  3.4083886777160217e+02  1.6522557140096126e+02  1.7100046282471791e+02  1.6525680084845206e+02  1.7096947916838147e+02  1.6519391244045968e+02  1.5948061809951824e+02  1.5944870563528679e+02  7.8382193000962062e+01  8.4064834521577836e+01  7.8410620942658710e+01  8.4036091987168646e+01  7.8353395574729618e+01  7.2728050223116341e+01  7.2699675145046200e+01  8.8188881765377005e+02  3.5082049837445555e+02  3.5019740231775671e+02  3.5834551665905099e+02  7.8804742010503571e+02  7.7999039514333231e+02  7.8874331471383186e+02  5.6575410369689178e+02  5.5796488206745335e+02  5.6641169721004508e+02  5.1905031631839631e+02  5.1841058169998917e+02  5.2678467245357615e+02  4.2729613975210520e+02  4.2265208602093111e+02  4.2205535751005476e+02  6.7753224429909653e+02  6.7282409285671088e+02  6.7227714392485791e+02  6.5870758075962635e+02  6.6341039626005670e+02  6.6396231614718442e+02  2.1026805204257687e+02  2.0291141534297694e+02  2.0463092461844826e+02  2.0855133052095715e+02  7.1699488830311259e+02  7.0900919413644533e+02  7.1087233829266961e+02  7.1513399612272099e+02  0.0000000000000000e+00  0.0000000000000000e+00  5.5260670084765087e+00  9.1876081221498760e+02  9.1876081221498760e+02  9.1251176984665665e+02  9.1876081221498760e+02  0.0000000000000000e+00  3.2381430467805382e+02  4.9127087546812476e+02  8.1754929794668283e+02  5.9398660444849759e+02  9.0108134048536931e+02  9.0113065993424084e+02  9.0108378346451002e+02  9.0113213310437925e+02  4.3313068944271805e+01  3.6670311952632105e+01  4.3034173117966255e+01  4.2775105685329066e+01  3.6959948793586108e+01  3.0591617806982850e+01  3.3350614595317541e+02  3.3361845478298011e+02  5.0116203820837535e+02  5.0127342824855953e+02  5.8377913626130930e+02  5.8362636349736101e+02  8.0711365951177663e+02  8.0563424514166957e+02  2.9343698944098696e+02  2.9156373141875434e+02  4.6022520660489704e+02  4.5819467171951760e+02  2.8365909766049413e+01  2.9508917278088862e+01  3.5555861917754882e+01  1.5510396136293451e+01  1.5558431204532660e+01  2.1379927949043827e+02  2.1551532374582979e+02  7.2083606691160287e+02  7.2269664769723522e+02  1.9368131914032890e+01  1.5100264146748383e+01  1.5209328068684078e+01  2.1163443626468603e+02  2.1861192244068059e+02  2.1648093304500574e+02  7.1848884145403110e+02  7.2606489559549505e+02  7.2374941676159983e+02  3.3704256866853626e+02  3.3200067554071887e+02  3.3087175718394462e+02  5.0508869680291161e+02  4.9979969632430283e+02  4.9864916685140224e+02  5.7976912026452624e+02  5.8516103236742038e+02  5.8629036135368744e+02  8.0322768448159002e+02  8.0743484094658299e+02  8.0973629026770493e+02  2.9550370859240536e+02  2.8854233452064580e+02  2.9057677007445591e+02  4.6240001963535173e+02  4.5517419343314168e+02  4.5733234853143733e+02  2.7754985072745988e+01  2.0655798996513752e+01  2.1244734715350653e+01  7.2381497901087960e+02  7.1550392752123514e+02  7.1209334248719813e+02  7.0719811540698231e+02  7.2040563823318507e+02  1.2170591481821285e+02  1.2562023698001452e+02  1.2957685861722095e+02  1.1775198374913504e+02  1.1384428835678800e+02  2.6077612039959490e+02  2.5311967798854229e+02  2.4947759764959073e+02  2.4547372656892375e+02  2.5713235581462635e+02  1.5806758238864273e+02  1.6525476952641907e+02  1.6885303840710270e+02  1.7245502429506581e+02  1.6166169633732420e+02  7.1330563610745955e+01  7.8406609387984346e+01  8.1949136789132808e+01  8.5494237548185751e+01  7.4870202050625480e+01  2.1655039212049368e+02  2.0575844646308337e+02  2.1341030447508226e+02  2.0890001067198139e+02  2.0125452984998026e+02  2.8886503037553763e+02  2.9276332748127277e+02  2.9522522862759064e+02  4.5582523540131729e+02  4.5960778494896249e+02  4.6209086761100428e+02  6.3032095521668077e+02  6.2551205789325991e+02  6.2365244079132037e+02  3.6440774107737991e+02  3.6893684141032526e+02  3.7076925951067221e+02  4.1078381930200931e+02  4.1439964189693427e+02  4.1675738690364676e+02  3.7581642670525525e+02  3.7760099009039044e+02  3.8173723026260774e+02  5.3423342294159875e+02  5.4651347484784242e+02  5.3829383278864861e+02  5.4245057437307628e+02  5.5067429495164583e+02  7.7238463450945380e+02  7.6379696034892811e+02  7.5957264411966548e+02  7.5522197054026753e+02  7.6815823829900330e+02  2.7464117137514599e+01  3.3060515129883633e+01  2.8180598514238102e+02  2.8386993229787328e+02  4.0226925773985113e+02  4.0914221185560683e+02  4.0444528579404852e+02  4.1130478332615553e+02  1.4921691391125322e+02  1.5578227749583337e+02  1.5128802375580679e+02  1.5783317245579974e+02  6.5074567909906887e+02  6.5793835983291717e+02  6.5302133688979814e+02  6.6020003561788667e+02  1.8124011333284562e+02  1.7460081845385770e+02  1.7909016129732677e+02  1.7247812080990411e+02  7.3332779771561945e+02  7.3098144535577717e+02  6.8548013838219481e+02  6.7827275508655612e+02  6.8315132288072584e+02  6.7597838919612900e+02  9.4143821310172186e+01  8.7610268976963141e+01  9.2028217812049135e+01  8.5523077534413460e+01  6.2633297085222708e+01  6.9094027958199078e+01  6.4673760672758846e+01  7.1112875835759553e+01  2.2530126813393795e+02  2.2313858548927450e+02  4.4820147908959046e+02  4.5034217648476846e+02  5.1066096232313731e+02  5.0583678644787955e+02  5.0366504502067988e+02  5.1288820715849408e+02  5.7419527245418215e+02  5.7906730989759239e+02  5.8140534032448682e+02  5.7187252026392207e+02  7.9681870624425869e+02  8.0193004810558398e+02  8.0419045446302971e+02  7.9453101376606401e