<?xml version="1.0"?>
<VTKFile type="UnstructuredGrid"  version="0.1"  >
<UnstructuredGrid>
<Piece  NumberOfPoints="2690" NumberOfCells="4864">
<Points>
<DataArray  type="Float64"  NumberOfComponents="3"  format="ascii">-5.025926120253609 22.00568890083816 0  -5.624449735302246 21.26824766392486 0  -5.02540598748244 21.50615681066293 0  -5.024815003214627 21.00572860863682 0  -5.624953335608058 21.76834891710497 0  -6.224004397943212 21.53008879380473 0  -9 21.99999999996945 0  -8.400659885823856 21.26368911284864 0  -9 21.49999999997139 0  -9 20.99999999997333 0  -8.400749490337539 21.76368242342207 0  -7.801414246929983 21.52735011737169 0  -9 32.9999999999446 0  -8.402630206014541 32.26367063984247 0  -9 32.49999999994358 0  -9 31.99999999994255 0  -8.402719872180848 32.76367225324806 0  -7.805354689264822 32.5273312359192 0  -5.039006851176296 33.00615416202682 0  -5.552943968803113 32.30244769408797 0  -5.038460401067853 32.50696944355401 0  -5.037846244599206 32.00595968165757 0  -5.553462132728241 32.80260408516802 0  -6.067941678752745 32.59817287795023 0  -5.064156533810408 54.00588426914135 0  -5.658304819183264 54.74310678889461 0  -5.657809851288889 54.24335064328463 0  -6.251410335876454 54.47995905160806 0  -5.064719478642772 54.50630415839508 0  -5.065252791886949 55.00594205933365 0  -9 54.99999999998974 0  -8.478470693281228 54.29711924293087 0  -9 54.49999999998872 0  -9 53.99999999998769 0  -8.478548174251015 54.79709540860159 0  -7.957034531952503 54.59419837005176 0  -9 39.99999999995897 0  -8.404152355936718 40.73865276111314 0  -8.40406270561126 40.23865388800917 0  -7.808210818648995 40.47729112501153 0  -9 40.49999999996 0  -9 40.99999999996102 0  -5.048539568875711 41.0054571573007 0  -5.617272359310808 40.27368754109737 0  -5.047999257976009 40.50633440095816 0  -5.047427803402017 40.00614558303958 0  -5.617777451553151 40.77359471514568 0  -6.187054898110834 40.54073899359155 0  -9 55.99999999999179 0  -8.431418431997308 56.74439432724188 0  -8.431341647805985 56.24437939364093 0  -7.862763765698435 56.4887581555467 0  -9 56.49999999999282 0  -9 56.99999999999384 0  -5.066536202471569 56.00562686484385 0  -5.635906168820707 56.74896145953475 0  -5.635413703416366 56.24893813310787 0  -6.204221926187567 56.49154920580893 0  -5.067134554103225 56.50649241930315 0  -5.067665611539826 57.00595860035155 0  -7.457404577042718 43.00321958649443 0  -6.620406012323133 43.11319835783604 0  -7.222118482420556 43.34110248355 0  -6.98687983744601 43.6789902344719 0  -6.855645823302992 42.77528062516809 0  -6.253803623202093 42.54734208077664 0  -6.597895405221585 49.00606768905149 0  -7.433410912483358 48.89574957740477 0  -6.832712658669434 48.66814167958214 0  -7.067579900655169 48.33019804081567 0  -7.198547104957272 49.2336631734921 0  -7.799114917052285 49.46130224100152 0  -6.595712917476744 46.00570139252824 0  -7.431988886019393 45.89551417806605 0  -6.830747376985043 45.66771053787004 0  -7.065830755127899 45.32974900305872 0  -7.196909101453352 46.23347189366721 0  -7.798022280758573 46.46122080509188 0  -6.567500550157253 7.005911615965998 0  -7.413590916830313 6.895678386512776 0  -6.805297363368025 6.667982162669631 0  -7.043143092092867 6.330054224273803 0  -7.175748819721589 7.233605708626339 0  -7.783914600371927 7.461295107599629 0  -7.451358155430992 30.00318337285357 0  -6.611077342681642 30.11311856613243 0  -7.215150044828816 30.34097994590813 0  -6.978989974556456 30.67875724817339 0  -6.84723968591308 29.77530323123562 0  -6.243036966394741 29.54745377161872 0  -6.565388973569982 4.005630369772705 0  -7.412323476734734 4.111843915717856 0  -6.80382237546431 4.342466342997729 0  -7.042210584572684 4.679283514824409 0  -7.17393822262863 3.775014890833625 0  -7.782558554244984 3.5444368428231 0  -6.569650686292005 10.00596428044464 0  -7.415092592348718 10.11206706177944 0  -6.807672175068324 10.34272554580648 0  -7.045647380498416 10.67948689482982 0  -7.177114088407182 9.775311180622802 0  -7.784660348404731 9.544651522703822 0  -6.571805726736226 13.00601436370415 0  -7.41639644008503 12.89576120683117 0  -6.809179086445273 12.66808686027648 0  -7.046601073953613 12.33016139573828 0  -7.178976950352959 13.23369564325262 0  -7.786066668442887 13.46135967236292 0  -6.573968733608085 16.00610643614493 0  -7.417807726076527 15.89578777292071 0  -6.811129650133305 15.66818557674923 0  -7.04833984565174 15.33025006099132 0  -7.180600878981793 16.23370141285524 0  -7.787150127004639 16.46133086986122 0  -6.576150094150681 19.00546786469049 0  -7.419333397762599 19.11168046714923 0  -6.813543029229105 19.34213245996088 0  -7.050886448717967 19.67883137454646 0  -7.181986465206369 18.77496424913434 0  -7.787907323786648 18.54444465105648 0  -6.581940667739722 27.0052629885745 0  -7.423109612674337 27.11155189861058 0  -6.818763585174518 27.34204245869598 0  -7.055538995987705 27.67883006918625 0  -7.186331613807377 26.77473214394304 0  -7.790805120072541 26.54424904200041 0  -8.273242775409324 19.0955119535254 0  -8.030595247124715 18.81996930559416 0  -8.393904263454809 18.27223819116767 0  -8.636561486695099 18.54778082838261 0  -9 17.99999999998495 0  -8.274979249211082 27.09544731279395 0  -8.032912120012098 26.81984887210502 0  -8.395353673710988 26.27211932993502 0  -8.637430363067548 26.54772261468979 0  -9 25.99999999995395 0  -8.27254766465016 15.90791069450856 0  -8.029828829394736 16.18462401771449 0  -8.393624083749412 16.73065248331625 0  -8.636333240060667 16.45394594380567 0  -9 16.99999999998883 0  -5.759962664011947 30.10085478032819 0  -6.001478301807428 29.82414676067804 0  -5.638704350721765 29.27790231260768 0  -5.39717439056403 29.55487715606774 0  -5.034206627763046 29.00567895535305 0  -8.271898570892134 12.90790864659205 0  -8.028962685912338 13.18463296007438 0  -8.393081946766959 13.73068231073755 0  -8.636008324493101 13.45395707945847 0  -9 13.99999999999401 0  -8.271293000535408 10.09569302620484 0  -8.02799641368394 9.820172517398451 0  -8.392281570434342 9.272324809456507 0  -8.635587790415357 9.547845376166158 0  -9 8.99999999999857 0  -8.270023940864823 4.095587429746421 0  -8.026309303453894 3.820016902931258 0  -8.391239802732125 3.272210153582006 0  -8.634959518373899 3.54778189222412 0  -9 2.999999999998668 0  -8.270609145819225 6.907867198442907 0  -8.027242047755854 7.1845800183827 0  -8.392005697445105 7.730649267390978 0  -8.635363132112447 7.453937071797598 0  -9 7.999999999999485 0  -8.279067903547993 45.90779155347384 0  -8.038525077714821 46.18449961529213 0  -8.39906013369872 46.73062063664221 0  -8.639593234656132 46.453913153321 0  -9 46.99999999997333 0  -8.27972164628925 48.90788987190265 0  -8.039398013984972 49.1845992090727 0  -8.399606823773299 49.73063777278595 0  -8.639920761361081 49.45393670654302 0  -9 49.99999999997949 0  -5.772620202192032 43.10092277442178 0  -6.013190039918484 42.82412931040011 0  -5.651830961985985 42.27771096122086 0  -5.411248051879791 42.55480195368709 0  -5.049688562466083 42.00545073038771 0  -5.749259443232777 23.92334361222606 0  -5.996506175012013 24.19046631090513 0  -5.636587875973014 24.73298197206357 0  -6.243710625437596 24.45760737440834 0  -5.389365992940653 24.46612899322905 0  -5.029559194378773 25.00566227145864 0  -8.285088198954035 52.08526687800408 0  -8.040088899510955 51.81811017564574 0  -8.39747445812225 51.27550026914299 0  -7.795049662368323 51.55096945658986 0  -8.642485060795465 51.54265661838051 0  -9 50.99999999998153 0  -5.763045173557925 38.09061795473726 0  -6.008759562977985 37.82222882828474 0  -5.649207019937218 37.28098442801215 0  -6.254516042180929 37.55386113272765 0  -5.403476836742899 37.5496945844088 0  -5.043716026788987 37.0051973966953 0  -5.759960496430709 34.9232877783875 0  -6.006396221547018 35.190370030217 0  -5.647668642336981 35.73281552058222 0  -6.252789730051134 35.45747015380207 0  -5.40125414017467 35.46604243574903 0  -5.042647159240863 36.00541276869328 0  -7.900492973428614 50.50281319507467 0  -7.847762844463475 51.02689844771614 0  -8.450288179250135 50.75139165423357 0  -6.147522605301064 36.50561858038981 0  -6.201025783638704 37.02970427203641 0  -5.595623960826607 36.75641696278296 0  -6.200149214694084 35.98150882777622 0  -5.595118779410432 36.25635880522607 0  -5.999257715107576 25.26613778560719 0  -6.121471312235063 24.86188549342649 0  -5.514422436392245 25.13693793694455 0  -8.034894011411595 25.74785795388317 0  -7.912835024983879 26.14605332282736 0  -8.51746523212022 25.87392988506038 0  -6.963258439565314 34.38004850223204 0  -6.607965445079559 34.91879064606118 0  -6.862480341086159 35.2427807735619 0  -7.217780099620508 34.70408492016857 0  -7.472251664081859 35.02811134181518 0  -7.087987669818162 52.62823213115577 0  -7.441460318926518 52.08963076545182 0  -7.188289493400732 51.76572849135654 0  -6.834822953651675 52.30434675224453 0  -6.581607835847365 51.98047791664406 0  -6.965863695038073 38.6282082252435 0  -6.610248250456665 38.09106721892017 0  -6.86410184540348 37.7659670144931 0  -7.219710791864882 38.3031570353908 0  -7.473607852203833 37.97809406283971 0  -6.956533187142557 23.38007932780718 0  -6.600063777664511 23.91886244428668 0  -6.855417096768203 24.24287799550781 0  -7.211893558598399 23.70413423049423 0  -7.467204104402247 24.02817320007435 0  -7.889677644493247 17.50266373250217 0  -7.838784245269682 18.02356262308652 0  -8.444880432142513 17.75131634110717 0  -7.838421766757789 16.98200040870354 0  -8.4447972335391 17.25134041696925 0  -7.886710121707468 8.502726471361996 0  -7.835677412200745 9.023689529138476 0  -8.443395932964284 8.751363855770553 0  -7.932096646432495 2.41796515621224 0  -7.857310795598608 2.981193769608093 0  -8.466087170678618 2.708990623131841 0  -7.835320207019301 7.982012283747116 0  -8.443313988494861 8.251361313662546 0  -7.849812047982384 49.98206108294004 0  -8.450204527370104 50.2514152835065 0  -6.063227828801502 41.59861781696691 0  -6.158528340719368 42.07300366970
[...]
<PointData  Scalars="f_29"> 
<DataArray  type="Float64"  Name="f_29"  format="ascii">2.5255258187786325e+02  2.4395030290539117e+02  2.4670902714360605e+02  2.4087339983739952e+02  2.4975796482115794e+02  2.4699658492347405e+02  2.5253115409223210e+02  2.4392647856869527e+02  2.4668655651755117e+02  2.4085003511086310e+02  2.4973385562079341e+02  2.4698232751527408e+02  3.8032686353358326e+02  3.7165608498845239e+02  3.7443567352365000e+02  3.6855380769403803e+02  3.7750864663799393e+02  3.7473608972000773e+02  3.8032401615100974e+02  3.7208380235534025e+02  3.7446401163270127e+02  3.6861400103555843e+02  3.7792297867851164e+02  3.7554275617443278e+02  6.2696556532812133e+02  6.3578313069730063e+02  6.2983757472547518e+02  6.3265815050430626e+02  6.3293633738657218e+02  6.3893122226367939e+02  6.3888263209830995e+02  6.3051961099770608e+02  6.3293702132738633e+02  6.2698981460881976e+02  6.3645604272834782e+02  6.3404300214220018e+02  4.6204523073167303e+02  4.7077795073695108e+02  4.6489187440677614e+02  4.6769263133465358e+02  4.6797047371205804e+02  4.7388739574273347e+02  4.7390545852342461e+02  4.6527273269433562e+02  4.6800183085461106e+02  4.6208784962584389e+02  4.7116138413625970e+02  4.6842792844553202e+02  6.5071238353238277e+02  6.5958739742406954e+02  6.5363998088020367e+02  6.5653407997706449e+02  6.5666906014313213e+02  6.6265958559591400e+02  6.5074500956455404e+02  6.5961029184267500e+02  6.5366466398050034e+02  6.5654916506321388e+02  6.5669757571130492e+02  6.6268834322233113e+02  4.9735060842221890e+02  4.9862672613885110e+02  5.0131304104514140e+02  5.0527734412554838e+02  4.9466522402992103e+02  4.9198168015356589e+02  5.6793031365576417e+02  5.6664739670034442e+02  5.6395236625890459e+02  5.5997547096188407e+02  5.7062653218171613e+02  5.7332016957658266e+02  5.3261444102441351e+02  5.3133015777361845e+02  5.2864541969245158e+02  5.2467632384420074e+02  5.3530027570103016e+02  5.3798530273623351e+02  7.9887061318473144e+01  7.8637727749425295e+01  7.6026143222051019e+01  7.2165933696595246e+01  8.2499973338498492e+01  8.5110787818863599e+01  3.4529595006330572e+02  3.4656172349381768e+02  3.4922427268791392e+02  3.5315520733245563e+02  3.4263616218558917e+02  3.3997648061663676e+02  4.5608878118185388e+01  4.6836665037040092e+01  4.9457472846049939e+01  5.3306625092204818e+01  4.2988814242182663e+01  4.0370085362464856e+01  1.1424416270556632e+02  1.1547854987816912e+02  1.1811011999332030e+02  1.2197626118015403e+02  1.1161348424325529e+02  1.0898512962434944e+02  1.4867025899224717e+02  1.4741628905523609e+02  1.4479310033848421e+02  1.4091664941937614e+02  1.5129439389217427e+02  1.5391691056103141e+02  1.8316947478683932e+02  1.8191574603841420e+02  1.7928352694534556e+02  1.7539862966479882e+02  1.8580279576295638e+02  1.8843345887647072e+02  2.1776265995081422e+02  2.1901061360887573e+02  2.2165948022872709e+02  2.2555823405197032e+02  2.1511646516839704e+02  2.1247079007651891e+02  3.1043708615247567e+02  3.1168979457009755e+02  3.1435264295882183e+02  3.1826956880822127e+02  3.0777578931342975e+02  3.0511385369630193e+02  2.1883930898185818e+02  2.1565616792935094e+02  2.0935376161486775e+02  2.1252991168359159e+02  2.0625696410244430e+02  3.1151890959644265e+02  3.0831664452270417e+02  3.0197382836635660e+02  3.0516924290601798e+02  2.9884725627255835e+02  1.8206905938890807e+02  1.8525056535000928e+02  1.9153681986372348e+02  1.8835272413349023e+02  1.9460710322381775e+02  3.4639505585718365e+02  3.4318694050268692e+02  3.3684235486559612e+02  3.4003589775742756e+02  3.3372454913680036e+02  1.4756769151629641e+02  1.5074161391526613e+02  1.5701104144117352e+02  1.5384174353933204e+02  1.6009032707306628e+02  1.1530846666157312e+02  1.1214765682704625e+02  1.0588888402993251e+02  1.0904281408746111e+02  1.0281305046554151e+02  4.6667352105504364e+01  4.3519012615673880e+01  3.7281376323744603e+01  4.0429992113535441e+01  3.4223710208439975e+01  7.8786335532729211e+01  8.1948001690279639e+01  8.8192164500976062e+01  8.5028490150774630e+01  9.1241056604349282e+01  5.3148636995382583e+02  5.3473506650853483e+02  5.4115363528422358e+02  5.3790952430245011e+02  5.4430708657951357e+02  5.6680497367792543e+02  5.7006186718908339e+02  5.7649785964533567e+02  5.7323835814869051e+02  5.7964273628443402e+02  4.9846115627827135e+02  4.9522275044275386e+02  4.8882202021564331e+02  4.9204521506575742e+02  4.8568332587186018e+02  2.7467847900864149e+02  2.7778105900259652e+02  2.8405852037665977e+02  2.8088355281654265e+02  2.8095176922055623e+02  2.8722155081776782e+02  6.0432761505341375e+02  6.0116700802986338e+02  5.9477556187017728e+02  5.9800496860279043e+02  5.9792869225702839e+02  5.9156644464036606e+02  4.3967828805644797e+02  4.3654837095282227e+02  4.3023292220828404e+02  4.3341682024371187e+02  4.3334571900996309e+02  4.2707235435461558e+02  4.0264054802316826e+02  4.0576942657210168e+02  4.1209531313502384e+02  4.0889831567839855e+02  4.0895578809208939e+02  4.1526366779827009e+02  5.8561836459714777e+02  5.9181390539349513e+02  5.8856961462269544e+02  4.2116232226106251e+02  4.2729172062244925e+02  4.2409632316774764e+02  4.1502575318833811e+02  4.1823164150534012e+02  2.9026087053321925e+02  2.8556996048543016e+02  2.8876036463000423e+02  2.9587677990595159e+02  3.0049630935775326e+02  2.9734531045246302e+02  3.9633875217626689e+02  4.0261734950678800e+02  4.0640694884172694e+02  4.0012633758748507e+02  4.0391444966601381e+02  6.1072421685764164e+02  6.0436128626771756e+02  6.0052679281071710e+02  6.0688715381121824e+02  6.0305117927449805e+02  4.4599514577162591e+02  4.3970177932797651e+02  4.3590348849984196e+02  4.4219427174629936e+02  4.3839393905299278e+02  2.6841934114331804e+02  2.7464993600559336e+02  2.7840775426387501e+02  2.7217558344639281e+02  2.7593161953030096e+02  2.0044426902361326e+02  2.0645960629238732e+02  2.0332771835430140e+02  1.9443463507834360e+02  1.9754469137332796e+02  9.7041166319392246e+01  1.0301554372618058e+02  9.9903925855471755e+01  2.7514097919167217e+01  3.3944992165871746e+01  3.0851269827497131e+01  9.1071935725221550e+01  9.4159893680217110e+01  5.7946499369050912e+02  5.8264945530042075e+02  4.8085481944616549e+02  4.8641919700354811e+02  4.8325282963053769e+02  2.8365067079412046e+02  2.8226794869835607e+02  2.7978995678995562e+02  5.9360599480368398e+02  5.9580511465438462e+02  5.9832815128548168e+02  4.2907550292755656e+02  4.3124603503844997e+02  4.3373377963835821e+02  4.1325580825613577e+02  4.1107798670049795e+02  4.0858402495219741e+02  3.3064545206529692e+02  3.3531154399239244e+02  3.3216967695452576e+02  5.0569996375185053e+02  4.9883725027695567e+02  5.0548955514847836e+02  5.5955244189598784e+02  5.6643434639925579e+02  5.5976365742690496e+02  5.2424962187938445e+02  5.3111633378621048e+02  5.2446275191934910e+02  7.1750510232415138e+01  7.8428744789820257e+01  7.1958487111899757e+01  5.3702476069814658e+01  4.7035738169543933e+01  5.3505102157942858e+01  3.5366634334552799e+02  3.4681695006156230e+02  3.5341257166125911e+02  1.2237409711204401e+02  1.1567889714892399e+02  1.2217580015840915e+02  1.4050029389687492e+02  1.4720706281859754e+02  1.4070868892047628e+02  1.7498493937666655e+02  1.8170734270607969e+02  1.7519150764055053e+02  2.2605370226470959e+02  2.1926020787945936e+02  2.2580798593408201e+02  3.1867570226050861e+02  3.1189345334989122e+02  3.1847335641385297e+02  3.0133229652672179e+02  3.0322267398099575e+02  3.0588491915167282e+02  2.0824373841308045e+02  2.1035697998868150e+02  2.1300288565744796e+02  1.9258095630135480e+02  1.9050787472034855e+02  1.8787454797189247e+02  3.3606158581108417e+02  3.3801931926661393e+02  3.4067817382831277e+02  1.5792771545992193e+02  1.5592268009837539e+02  1.5329833035134882e+02  1.0487296365142150e+02  1.0692864802396105e+02  1.0955818386247236e+02  3.7775125045870190e+01  3.9072324211037788e+01  4.1692040288339079e+01  8.9233246945653434e+01  8.7172691728888054e+01  8.4559234633366259e+01  4.8801311724041392e+02  4.8999729653280366e+02  4.9268206545319475e+02  5.7756581348919894e+02  5.7544368541098402e+02  5.7274730934948821e+02  5.4209058023787316e+02  5.4003825539288607e+02  5.3735174145817439e+02  4.7464117334204957e+02  4.7737873257488337e+02  6.4482875716088733e+02  6.3874481081766589e+02  6.4185633227348853e+02  6.4481104474338792e+02  6.3942686221898043e+02  6.4184356696181578e+02  6.5067252886326685e+02  6.4775991021030177e+02  6.5068918757355971e+02  6.4778330012211370e+02  1.6112646824497805e+01  2.3525857725667031e+01  1.7825970312885573e+01  1.9537933827240316e+01  2.1810079186232308e+01  6.8916296848784941e+02  6.8919652790757777e+02  6.9373930890961117e+02  6.8922874265785890e+02  6.9370752085965080e+02  6.9825312320388457e+02  6.8916464190639829e+02  6.8919807110455486e+02  6.9374043693126623e+02  6.9370871631691568e+02  6.9825312320388457e+02  6.7073342364547887e+02  6.6363307360743579e+02  6.6668441560857013e+02  6.7074300506810903e+02  6.6364724103859339e+02  6.6670275912276747e+02  8.8186335987411635e+00  8.8484101776687893e+00  4.4392512906399615e+00  8.8787335287072402e+00  4.4091913465187327e+00  0.0000000000000000e+00  2.5643486641971100e+02  2.5213844416843688e+02  2.5729342133177431e+02  2.5128151046058539e+02  2.5558285448976409e+02  3.8425570944586292e+02  3.7992587919211638e+02  3.8511404719913497e+02  3.7906847991703989e+02  3.8340314043664620e+02  4.5811755574728448e+02  4.6247488491082254e+02  4.5725891969457808e+02  4.6333134212075544e+02  4.5896941740544514e+02  6.2384851139499290e+02  6.2825444442000787e+02  6.2657853980419327e+02  6.2218020812237557e+02  6.2050322320786563e+02  8.7112705152152028e+00  8.7947318793856262e+00  4.4398030386147536e+00  4.3549742377783884e+00  0.0000000000000000e+00  2.3768282570744543e+02  2.4234068651817611e+02  2.3929003617080573e+02  3.6535007298367725e+02  3.7004322149681042e+02  3.6696151935928907e+02  4.7699581080781371e+02  4.7234369156651053e+02  4.7543200503219396e+02  6.3874281688931967e+02  6.4482761933561574e+02  6.4482406836795337e+02  6.5067831249304129e+02  6.4481911243809657e+02  6.5068576938382455e+02  6.3943219201750401e+02  4.7408745618807365e+02  4.8029895970687460e+02  4.7974577269276790e+02  2.4460852797096661e+02  2.4579420805948649e+02  2.5095275396401868e+02  2.4580138501685724e+02  2.5214532744708919e+02  3.7155065900625715e+02  3.7314193555394462e+02  3.7833349510560544e+02  3.7354608322617059e+02  3.8032729952233109e+02  6.3070265743628659e+02  6.3168204752892416e+02  6.2560166396024363e+02  4.7011571236901631e+02  4.6927183107578736e+02  4.7493143771381961e+02  4.6283965272088284e+02  4.6368502155597423e+02  4.6890582559559425e+02  6.5548214539674382e+02  6.5601639786416990e+02  6.5015265902439580e+02  6.5600885135308681e+02  6.6120113410872841e+02  6.6067359675197338e+02  6.6586377175517657e+02  6.3237293446739898e+02  6.3776244319336399e+02  6.6120798987570561e+02  2.5710266894563051e+02  2.5205119723456914e+02  2.5719577145515075e+02  3.8492659528578122e+02  3.8023541081382393e+02  3.8501889887805891e+02  4.5746809730234617e+02  4.6294631574837871e+02  4.5736759930182086e+02  2.0434572992501140e+02  1.9651044326990805e+02  1.0095885072285658e+02  3.2646669316272657e+01  9.3134973729886511e+01  5.8158993997687776e+02  6.2669559517001710e+02  6.2159738780483451e+02  6.2268736227273610e+02  6.2836356194523819e+02  2.0045216366016683e+02  1.9651590241501870e+02  2.0044886998478842e+02  2.0434778271093955e+02  9.7051480253923827e+01  9.3141784356422818e+01  9.7046845314800535e+01  2.8488822417370802e+01  3.3132272224240850e+01  2.8002646484857472e+01  1.0096215759281291e+02  5.8562388378049616e+02  5.8159412359906958e+02  5.8562176791950844e+02  2.3389746207378408e+02  2.4114863699090029e+02  2.3925203176659181e+02  2.3579273126664316e+02  3.6155587034522978e+02  3.6845246974999532e+02  3.6655252760433302e+02  3.6345499783557040e+02  4.7355307502772837e+02  4.7836860744093855e+02  4.8443272244371639e+02  4.8388017039759325e+02  6.8180742364546461e+02  6.7400814732817446e+02  6.7954675751122659e+02  6.7728675359431065e+02  6.7627120874672516e+02  6.8180681255362038e+02  6.7401116777579773e+02  6.7954688950579077e+02  6.7627405690961677e+02  6.6830059044833820e+02  6.6829521036068968e+02  1.6408917562083573e+02  1.5900095134957672e+02  1.6210821671225173e+02  5.4839868750720950e+02  5.4318985198228290e+02  5.4637121138517693e+02  5.8961384705381522e+02  4.1720558768366652e+02  4.2511965747020497e+02  5.8961478474165767e+02  4.2115118608301128e+02  4.1720331736470939e+02  4.2115615840183460e+02  4.2511353716656203e+02  2.9303400620461531e+02  2.9860470346955464e+02  2.9718340213468849e+02  2.9445492093347355e+02  3.4530405783225342e+02  3.3950036432628548e+02  3.4585167720847608e+02  1.8313896429041893e+02  1.8260434612259706e+02  1.8888006292964258e+02  2.1774856452681036e+02  2.1199534933622371e+02  2.1829427200829988e+02  3.1042214460934150e+02  3.0463005085533598e+02  3.1097102571188117e+02  4.5589801212598282e+01  3.9899136570972054e+01  4.6129197631210175e+01  7.9848067720122970e+01  7.9317147427433852e+01  8.5552132674488789e+01  1.1422532900508412e+02  1.0851171647531257e+02  1.1476745261952597e+02  1.4863623002686671e+02  1.4810231233711468e+02  1.5436719452297839e+02  5.3258156793465639e+02  5.3203437685379163e+02  5.3844806739410126e+02  5.6790073378684451e+02  5.6735321812865914e+02  5.7377867149012616e+02  4.9736100978994108e+02  4.9150597998948723e+02  4.9791353349871378e+02  2.4071844051767900e+02  2.3536380304164342e+02  2.3682501216310820e+02  3.6808477030286343e+02  3.6308774682077433e+02  3.6461640153437355e+02  3.2663943843943736e+02  3.2287701875994662e+02  3.2707947302810584e+02  3.2243694076339352e+02  3.2620004122214988e+02  5.1455109184566072e+02  5.1033951357151881e+02  5.1497596670051450e+02  5.0991123195322712e+02  5.1412868466867428e+02  5.1540185055304710e+02  5.1961212131556545e+02  5.2003988991462040e+02  5.1582901598435126e+02  3.3335280613840081e+02  3.2886117387202586e+02  3.3157051683541067e+02  2.4190309580526798e+02  3.7007929671374893e+02  2.4012481704097663e+01  2.5406153511722405e+02  3.8186977862664656e+02  6.2540466878067696e+02  4.6050328706093137e+02  2.3884588632707164e+02  3.6661904281200162e+02  2.8695444732395237e+02  2.8834184788928638e+02  2.9164788137540990e+02  3.9531249839341433e+02  4.0210165860881284e+02  3.9582542443819926e+02  6.1175925287860150e+02  6.0487993806403153e+02  6.1124380277444493e+02  4.4689420860586887e+02  4.4015187376976132e+02  4.4644621674363424e+02  2.6753997817574151e+02  2.7420824927608970e+02  2.6797938721046251e+02  1.3143651608704235e+02  1.3597132552035455e+02  1.3144299721410445e+02  1.3596501119120467e+02  1.3142993075073011e+02  1.2690799187282320e+02  1.2690128434739620e+02  6.2725934585861786e+01  6.7241366399648996e+01  6.2732684205771868e+01  6.7234707239967534e+01  6.2719262470476522e+01  5.8216946878863013e+01  5.8210210572418021e+01  6.7157651306352625e+02  2.7565051653263595e+02  2.7516799966548047e+02  2.8142875017000785e+02  6.0333073061481980e+02  5.9744131308164890e+02  6.0382833265011357e+02  4.3870107419403809e+02  4.3286855958743627e+02  4.3919045072074647e+02  4.0361653698388398e+02  4.0313132104819243e+02  4.0943687006522964e+02  3.3417121526946670e+02  3.3062495672293954e+02  3.3018556532933485e+02  5.2193185991058886e+02  5.1845323241428048e+02  5.1802980306901236e+02  5.0802348504435099e+02  5.1149983036983997e+02  5.1192521141032597e+02  1.6675033749044397e+02  1.6100772648210960e+02  1.6233846377982110e+02  1.6542082039378201e+02  5.5112219540872866e+02  5.4524381889341430e+02  5.4660579626135120e+02  5.4976143350498330e+02  0.0000000000000000e+00  0.0000000000000000e+00  4.4393808301788873e+00  6.9825312320388457e+02  6.9825312320388457e+02  6.9374044634254358e+02  6.9825312320388457e+02  0.0000000000000000e+00  2.5483289908115668e+02  3.8263253189261604e+02  6.2484098681298849e+02  4.5979084602923092e+02  6.8548483180573862e+02  6.8551645646451857e+02  6.8548639735763652e+02  6.8551734815605710e+02  3.4704044601145782e+01  2.9375092849714960e+01  3.4468401311706195e+01  3.4252460145645834e+01  2.9617675230560511e+01  2.4525953367526842e+01  2.6232079206402591e+02  2.6241667765064744e+02  3.9011939027603808e+02  3.9021325460964329e+02  4.5218091013189411e+02  4.5207598821122093e+02  6.1722084939336344e+02  6.1613180844994224e+02  2.3143654960536639e+02  2.2997546667925414e+02  3.5913891085378043e+02  3.5761222443648177e+02  2.2755973531710278e+01  2.3654792545638777e+01  2.8497478787680063e+01  1.2464166323533119e+01  1.2496526732096479e+01  1.6953836830882463e+02  1.7086611660847939e+02  5.5397681300069382e+02  5.5533572445772131e+02  1.5549056719042794e+01  1.2128952821209918e+01  1.2213718481790790e+01  1.6786562825662534e+02  1.7331616823973172e+02  1.7167100420595753e+02  5.5226482606324430e+02  5.5784439675721842e+02  5.5615967196226825e+02  2.6508207151940900e+02  2.6118714744157876e+02  2.6033190826755958e+02  3.9311944305917928e+02  3.8911611908182135e+02  3.8826054328865717e+02  4.4921673323696194e+02  4.5323738203867657e+02  4.5409321684499452e+02  6.1435256986198544e+02  6.1742821606272616e+02  6.1909806894054771e+02  2.3305164280432473e+02  2.2766720977185108e+02  2.2925523425916776e+02  3.6077829349543930e+02  3.5530400286589310e+02  3.5692200744719742e+02  2.2291870600557594e+01  1.6596128103465688e+01  1.7076640680179498e+01  5.5613246667809562e+02  5.5000069898472657e+02  5.4749547405541830e+02  5.4387074225457422e+02  5.5362761391393497e+02  9.7060643264504890e+01  1.0016907271184185e+02  1.0328635266324233e+02  9.3943649611693672e+01  9.0836994090775534e+01  2.0609676012339284e+02  2.0014287786164317e+02  1.9732139592577286e+02  1.9419243215072348e+02  2.0327472001390890e+02  1.2575857327924325e+02  1.3141761318428308e+02  1.3426045289917676e+02  1.3707947559811879e+02  1.2860080685124896e+02  5.7073140758672018e+01  6.2708298465935876e+01  6.5538510912379323e+01  6.8346041237992154e+01  5.9902939945165038e+01  1.7164470337221491e+02  1.6320755516233777e+02  1.6919784472885186e+02  1.6565470256444908e+02  1.5966622792266503e+02  2.2786052516967735e+02  2.3088062953111515e+02  2.3276936845928293e+02  3.5584436896272774e+02  3.5870137687135576e+02  3.6059535872348721e+02  4.8692726544421186e+02  4.8333514659885179e+02  4.8196314246632937e+02  2.8611166531005023e+02  2.8957380814179766e+02  2.9099175135988429e+02  3.2154600022982726e+02  3.2431440740861865e+02  3.2609452009280290e+02  2.9480828031077442e+02  2.9619201338550761e+02  2.9935213747327055e+02  4.1507132946438230e+02  4.2428603527716137e+02  4.1811058078346520e+02  4.2124552390675314e+02  4.2742083094533143e+02  5.9179635807025727e+02  5.8550337990505159e+02  5.8241812654423757e+02  5.7921415225513522e+02  5.8871062036260150e+02  2.2031985211328333e+01  2.6509303255107479e+01  2.2244532946136798e+02  2.2405870497669565e+02  3.1509710773308592e+02  3.2035210849430507e+02  3.1677358649452509e+02  3.2201555676298455e+02  1.1884090784978240e+02  1.2402702722340466e+02  1.2049294317652804e+02  1.2566056427959343e+02  5.0208046386720133e+02  5.0740267714805782e+02  5.0377482485499706e+02  5.0907600706145467e+02  1.4403399793579791e+02  1.3883207373694745e+02  1.4236547918780445e+02  1.3718326206340762e+02  5.6317929452904434e+02  5.6147044075507165e+02  5.2786816677020374e+02  5.2254370062707108e+02  5.2616205826860255e+02  5.2086423459332082e+02  7.5268664274619226e+01  7.0089037034084285e+01  7.3606596021386906e+01  6.8447567073953749e+01  5.0184482841373836e+01  5.5348497893262881e+01  5.1829852557200454e+01  5.6975084019545250e+01  1.7852758213260537e+02  1.7685815734372173e+02  3.5003025879508817e+02  3.5165965006495742e+02  3.9730283794812931e+02  3.9364097000913711e+02  3.9199122696940964e+02  3.9897637172221562e+02  4.4502588366172319e+02  4.4865076653077972e+02  4.5038543173494389e+02  4.4328517201121844e+02  6.0972591640083181e+02  6.1345173166664881e+02  6.1511117581080305e+02  6.0804208739908870e