<?xml version="1.0"?>
<VTKFile type="UnstructuredGrid"  version="0.1"  >
<UnstructuredGrid>
<Piece  NumberOfPoints="2690" NumberOfCells="4864">
<Points>
<DataArray  type="Float64"  NumberOfComponents="3"  format="ascii">-5.016709310182146 22.0036519933563 0  -5.616867224238946 21.26619111365169 0  -5.016372473712146 21.50395283517286 0  -5.015993514227261 21.00367944190316 0  -5.617190516435796 21.76625569223456 0  -6.217690897913219 21.52826787398547 0  -9 21.99999999996945 0  -8.399314227632429 21.26326360902649 0  -9 21.49999999997139 0  -9 20.99999999997333 0  -8.399371778220365 21.76325929432034 0  -7.798689054166698 21.52650915968964 0  -9 32.9999999999446 0  -8.400581071279044 32.26325170006214 0  -9 32.49999999994358 0  -9 31.99999999994255 0  -8.400638682367054 32.76325271573812 0  -7.801222687743093 32.52649694831005 0  -5.025120905305893 33.00395140626645 0  -5.541108016214931 32.30026842310541 0  -5.024766714329353 32.50447472246915 0  -5.024375265249875 32.00382749016606 0  -5.54144022028425 32.80036872766137 0  -6.057778937903529 32.59622004051849 0  -5.041262609507318 54.00378164987364 0  -5.638610521020958 54.74110203959544 0  -5.638293068318438 54.24125855782646 0  -6.235292762355091 54.47818575029062 0  -5.041621155638251 54.50404820137187 0  -5.041966289484133 55.00381648559138 0  -9 54.99999999998974 0  -8.47542432434722 54.29675964235574 0  -9 54.49999999998872 0  -9 53.99999999998769 0  -8.475473864912058 54.79674442033181 0  -7.95090814597128 54.5934936407734 0  -9 39.99999999995897 0  -8.401558916520987 40.73824032843047 0  -8.401501321892429 40.23824102767392 0  -7.803057475476757 40.47647141970401 0  -9 40.49999999996 0  -9 40.99999999996102 0  -5.031245456449239 41.00350541612247 0  -5.602720022001424 40.27158843782676 0  -5.030895373036905 40.50406809039921 0  -5.030530092917837 40.00394884988226 0  -5.603044376584936 40.77152868624557 0  -6.174872379129067 40.53891397485817 0  -9 55.99999999999179 0  -8.427951531015861 56.74401199024184 0  -8.427902406546874 56.24400247370303 0  -7.855856312009943 56.48800448964167 0  -9 56.49999999999282 0  -9 56.99999999999384 0  -5.04278682600373 56.00361703271938 0  -5.615338540477866 56.74694629257344 0  -5.615022035957293 56.24693136588891 0  -6.187216139438963 56.48979772052925 0  -5.043167785529103 56.50416910672753 0  -5.043511392523097 57.00382711686652 0  -7.450310069826121 43.00206703144509 0  -6.609432490604315 43.11139821688473 0  -7.213876632745871 43.3397544940244 0  -6.977473838162229 43.67744515077324 0  -6.845836329206715 42.77368843261709 0  -6.241308520372107 42.54530984949236 0  -6.585278544757214 49.00389435500622 0  -7.425201555098678 48.89434540892338 0  -6.82141115386082 48.66617918365521 0  -7.057575466684109 48.32845278396061 0  -7.189039255243367 49.23205256146348 0  -7.792746329814287 49.46023877550958 0  -6.58387560056988 46.00365952022388 0  -7.424287537765347 45.89419471049813 0  -6.82014722312659 45.66590298395153 0  -7.056450151657563 45.32816525985513 0  -7.187986957913885 46.23193005979868 0  -7.792044714386845 46.46018668371391 0  -6.56573126014553 7.00379647984252 0  -7.412455191762448 6.894301378536025 0  -6.80377942556155 6.666079013803883 0  -7.041858852781574 6.328362532913325 0  -7.174378146644577 7.232017517100576 0  -7.782971736836923 7.460235465621338 0  -7.446425236895971 30.00204378320133 0  -6.603438903598194 30.11134712362279 0  -7.209399179331256 30.33967591147221 0  -6.972404033949968 30.67729573897916 0  -6.840435687110015 29.77370298020369 0  -6.234391758492797 29.54538171303567 0  -6.564367695892737 4.003616078485869 0  -7.411636735006168 4.110529666575316 0  -6.802826978255806 4.340631393238475 0  -7.041256710453372 4.677634561540676 0  -7.173208919257477 3.773518812892881 0  -7.782096073223681 3.543445699759116 0  -6.567117789790331 10.00383064716577 0  -7.413423640831945 10.11067304419822 0  -6.805310919476876 10.34079790670941 0  -7.043473932511284 10.67776517702118 0  -7.175258590940864 9.773709227716795 0  -7.783452674533175 9.54358367213039 0  -6.568507303743523 13.00386238693742 0  -7.414264396801533 12.89435452244639 0  -6.806282537414853 12.66614617078623 0  -7.044088853627982 12.32843128335103 0  -7.176459836842901 13.23207523203115 0  -7.784359556971575 13.46027690033644 0  -6.569901257302267 16.00392156175065 0  -7.415173571534657 15.89437150550621 0  -6.807539578582817 15.66620958895556 0  -7.045209308456339 15.32848821534935 0  -7.177505858260318 16.2320788339483 0  -7.785057196287484 16.4602582764561 0  -6.571301568792769 19.00351086782118 0  -7.416153048422653 19.11042424683813 0  -6.809088534934572 19.34041623062933 0  -7.046843950001315 19.67734362141791 0  -7.178395504732006 18.77348581277566 0  -7.785543386100323 18.54345043778517 0  -6.575024370082581 27.00337896773458 0  -7.418580700358749 27.11034140099238 0  -6.812445590637784 27.34035808497512 0  -7.049836064194954 27.67734240481572 0  -7.181188353540628 26.77333645556407 0  -7.787405679942316 26.54332462193326 0  -8.271781763024851 19.09493533014342 0  -8.028675520587042 18.81918710296589 0  -8.392740018945348 18.27173540859715 0  -8.635852484286831 18.54748361901855 0  -9 17.99999999998495 0  -8.272898033492849 27.09489368768538 0  -8.030164698689108 26.81910959738949 0  -8.393671371908187 26.27165898482853 0  -8.636410877664378 26.54744617969874 0  -9 25.99999999995395 0  -8.27133545814026 15.9072625172719 0  -8.028183433423445 16.18376247635694 0  -8.392560117447976 16.73012079815046 0  -8.635705932694568 16.45362520410334 0  -9 16.99999999998883 0  -5.749605190615156 30.0983651327881 0  -5.99198463081682 29.82186845303557 0  -5.628264025725325 29.27537017479478 0  -5.385874235312601 29.55203804161699 0  -5.022038492376113 29.00364537031413 0  -8.270917378595882 12.9072612657486 0  -8.027625629282241 13.18376831156543 0  -8.392211148499909 13.73014003938184 0  -8.63549673983019 13.45363240265877 0  -9 13.99999999999401 0  -8.27052687857595 10.09505184653508 0  -8.027002525774058 9.819317918106028 0  -8.391695016655602 9.271791220178896 0  -8.635225554873063 9.547525189576673 0  -9 8.99999999999857 0  -8.269707935922057 4.09498400154037 0  -8.025913698676488 3.819217921118533 0  -8.391022541079632 3.271717529998879 0  -8.634820037259097 3.547484393239019 0  -9 2.999999999998668 0  -8.270085832969782 6.90723466723688 0  -8.026516017740315 7.183734337130416 0  -8.391517101830603 7.730118837803404 0  -8.635080666993058 7.453619564253134 0  -9 7.999999999999485 0  -8.275525935706332 45.90718553221298 0  -8.033772446351827 46.18368190421599 0  -8.39605390530514 46.73009988834647 0  -8.637801131722259 46.45360388657865 0  -9 46.99999999997333 0  -8.275946067538172 48.90724842255501 0  -8.034333224555494 49.18374561220313 0  -8.3964047915295 49.73011081562193 0  -8.638011442327 49.45361893472151 0  -9 49.99999999997949 0  -5.757736917704082 43.09840850644382 0  -5.999508660163176 42.82185696220557 0  -5.6366964784662 42.27524692112496 0  -5.394915071126768 42.55198920145989 0  -5.031984301450227 42.00349936354426 0  -5.741028861406741 23.92083044653979 0  -5.988815259260234 24.18817283296078 0  -5.627777305085265 24.73044719566528 0  -6.236574530051746 24.45552689853024 0  -5.380005716864652 24.4632781626031 0  -5.019049407209756 25.00363662991295 0  -8.281087926012763 52.08469735368297 0  -8.034746414593137 51.81733327884599 0  -8.394157492549597 51.2749996724524 0  -7.788379379677079 51.54997945684062 0  -8.640506243687446 51.54236351796753 0  -9 50.99999999998153 0  -5.749890272739392 38.08813225604451 0  -5.996691601396845 37.81997688132265 0  -5.63588878474673 37.27851873930869 0  -6.243520020332367 37.55183568994628 0  -5.389076106827729 37.54687981053052 0  -5.02814950300074 37.00333653014359 0  -5.747908950589147 34.92079426465142 0  -5.995173642772155 35.18811073824465 0  -5.634900930253771 35.73034022824424 0  -6.242411239219896 35.45543862732587 0  -5.387648763294134 35.46322228663433 0  -5.027463438401051 36.00347786997227 0  -7.894534728894802 50.5018684299102 0  -7.841451677057436 51.02592850666863 0  -8.447294046820582 50.75092462195357 0  -6.136422765447128 36.50360786211681 0  -6.189975583355749 37.02769886135699 0  -5.582285720656202 36.75412043496299 0  -6.189412657631169 35.97950072819921 0  -5.581961982389468 36.25408409422054 0  -5.991231391166696 25.26392705823327 0  -6.113894564190332 24.85973540995773 0  -5.505145660448245 25.13444842512939 0  -8.032262955713568 25.74712673676758 0  -7.909824955798474 26.14522556999212 0  -8.516143231240209 25.87356394722127 0  -6.955804175713173 34.37856431047569 0  -6.599070019814731 34.91702136111262 0  -6.85445583423627 35.24121152304298 0  -7.211194262793565 34.70278407680576 0  -7.466552182590111 35.0269974388174 0  -7.077172936233727 52.6267515448256 0  -7.432738945429618 52.08838468473117 0  -7.178217186109044 51.76425094578711 0  -6.822655127104976 52.30262856554241 0  -6.568105152758172 51.97851626121351 0  -6.957477711841532 38.62673634656371 0  -6.600536358816507 38.08930688078319 0  -6.855497381568203 37.76440429753777 0  -7.212434466363664 38.30186506643323 0  -7.46742333954113 37.9769863062719 0  -6.951480219795674 23.37858429307607 0  -6.593989959418902 23.9170676856595 0  -6.849915082266036 24.24127410993801 0  -7.207409738522164 23.70281590872217 0  -7.463307229269548 24.02703729035451 0  -7.887637359700517 17.50171048932779 0  -7.836585138881572 18.02258587075588 0  -8.443845394272707 17.75084525547587 0  -7.836352369667911 16.98098638017871 0  -8.443791971454695 17.25086073798519 0  -7.885725388197832 8.501751030837303 0  -7.83458396121418 9.02266768994979 0  -8.442889089480273 8.750875917609681 0  -7.931794381054909 2.417117287783931 0  -7.856934324091406 2.980276837793656 0  -8.465922323821236 2.708563828505451 0  -7.834353600541155 7.980994207526333 0  -8.442836242599729 8.250874280281897 0  -7.843645737484533 49.98105576351034 0  -8.447240515870266 50.25093976484933 0  -6.050171282916781 41.59664284093606 0  -6.145747839895328 42.070991401
[...]
<PointData  Scalars="f_29"> 
<DataArray  type="Float64"  Name="f_29"  format="ascii">2.5701408729923003e+02  2.4828186477813975e+02  2.5108303229755381e+02  2.4515933709410470e+02  2.5417643407291021e+02  2.5137584413682984e+02  2.5700536580731369e+02  2.4826958224838179e+02  2.5107321804059276e+02  2.4514920653580904e+02  2.5416362770337960e+02  2.5136850892920455e+02  3.8651739949457493e+02  3.7773853023605898e+02  3.8055415915326284e+02  3.7460020988197306e+02  3.8366221045435111e+02  3.8085375621198472e+02  3.8650263865535089e+02  3.7816157310520435e+02  3.8057157099504832e+02  3.7464902947633823e+02  3.8407146485693318e+02  3.8166375726189227e+02  6.3545668948081038e+02  6.4433344493470281e+02  6.3834802510579027e+02  6.4118922558367694e+02  6.4146784086456262e+02  6.4750236157302470e+02  6.4746444287237318e+02  6.3904492005398720e+02  6.4147993190962586e+02  6.3549350435095141e+02  6.4501999668692270e+02  6.4258937120540361e+02  4.6914459420011417e+02  4.7796442705992018e+02  4.7201843512959613e+02  4.7484539353378267e+02  4.7513052316484413e+02  4.8110775962186318e+02  4.8111292217904264e+02  4.7239326412805298e+02  4.7515028120607820e+02  4.6917664077505566e+02  4.7834071209906114e+02  4.7558163187954989e+02  6.5936894617554606e+02  6.6829771880931571e+02  6.6231321600840147e+02  6.6522331227059340e+02  6.6536278980711177e+02  6.7139099187193005e+02  6.5939184077407390e+02  6.6831292065940261e+02  6.6232983482010661e+02  6.6523350931969287e+02  6.6538210421678309e+02  6.7141006506277506e+02  5.0479600922600258e+02  5.0608252173294892e+02  5.0879551327372297e+02  5.1279643501585122e+02  5.0208329062192547e+02  4.9937267196204306e+02  5.7599597608622332e+02  5.7470566113523978e+02  5.7198687177232546e+02  5.6797848448751267e+02  5.7871554563884865e+02  5.8143259066289261e+02  5.4038234648571358e+02  5.3908926229022143e+02  5.3637838717707416e+02  5.3237421147767645e+02  5.4309373087782717e+02  5.4580447363066241e+02  8.1459168183875391e+01  8.0189431033193571e+01  7.7526354832635079e+01  7.3594047628206397e+01  8.4123179364348061e+01  8.6785180964885257e+01  3.5104686452416934e+02  3.5232702891627372e+02  3.5502441043502188e+02  3.5900413933941996e+02  3.4835159043501483e+02  3.4565631112967804e+02  4.6523790281890790e+01  4.7777957055127324e+01  5.0448181302333872e+01  5.4372964867946884e+01  4.3853763779969874e+01  4.1185299449711771e+01  1.1644687494234252e+02  1.1770676576978728e+02  1.2038292083039427e+02  1.2431899895572356e+02  1.1377123263045111e+02  1.1109797327470483e+02  1.5147829037709016e+02  1.5020612393829825e+02  1.4753514191871551e+02  1.4359250618684030e+02  1.5414986258543775e+02  1.5681986969706236e+02  1.8655770226884644e+02  1.8528648114567216e+02  1.8260877604044890e+02  1.7866058042327711e+02  1.8923611004831091e+02  1.9191190351570768e+02  2.2170248231604521e+02  2.2297199695217947e+02  2.2565979008478752e+02  2.2961876598586585e+02  2.1901675229604263e+02  2.1633189050162903e+02  3.1572798189005323e+02  3.1699953383557039e+02  3.1969661765243728e+02  3.2366643921192923e+02  3.1303171663285076e+02  3.1033515556039487e+02  2.2280112970843760e+02  2.1956768162902722e+02  2.1316854161347996e+02  2.1639531792142819e+02  2.1002584374092041e+02  3.1682916141212019e+02  3.1358245504269763e+02  3.0715423145731381e+02  3.1039439988462857e+02  3.0398703092353583e+02  1.8544580911189422e+02  1.8867817323310206e+02  1.9506808753695572e+02  1.9183348186196261e+02  1.9819020399574092e+02  3.5215814185892560e+02  3.4890825444697992e+02  3.4247934882077442e+02  3.4571774340766058e+02  3.3931831198350136e+02  1.5036400132723412e+02  1.5359126286285127e+02  1.5996956304479417e+02  1.5674738027106108e+02  1.6310397509443348e+02  1.1753746429249821e+02  1.1431861263236455e+02  1.0794837837651852e+02  1.1116059212144481e+02  1.0481944875413821e+02  4.7608460495542850e+01  4.4397192619343294e+01  3.8037759064802501e+01  4.1249699112782636e+01  3.4921637214599244e+01  8.0344417463502197e+01  8.3564262431321978e+01  8.9926632319854846e+01  8.6705109765830414e+01  9.3034683922520998e+01  5.3925022623068992e+02  5.4252658797700224e+02  5.4900278198295018e+02  5.4573151952808985e+02  5.5218582126241222e+02  5.7486777339458411e+02  5.7814949312312433e+02  5.8463748754355629e+02  5.8135350368439344e+02  5.8780849647214234e+02  5.0591533244583866e+02  5.0264524203960650e+02  4.9618050728289575e+02  4.9943847539437382e+02  4.9300864655322266e+02  2.7946904969299862e+02  2.8261550609670883e+02  2.8897940402029957e+02  2.8576206030099638e+02  2.8583235647001402e+02  2.9218376490554220e+02  6.1267368481251560e+02  6.0948947244992348e+02  6.0305335324558678e+02  6.0630371712105784e+02  6.0623038500348935e+02  5.9982376413407997e+02  4.4653754212685124e+02  4.4337320259535659e+02  4.3698637992361654e+02  4.4020733089242697e+02  4.4013720996684492e+02  4.3378822960166383e+02  4.0908703376952928e+02  4.1225127948371204e+02  4.1864650291650463e+02  4.1541565494877182e+02  4.1547503210801489e+02  4.2184650049629818e+02  5.9382590319377664e+02  6.0006735315238052e+02  5.9680128394220219e+02  4.2781436250230269e+02  4.3401341071932097e+02  4.3077873024010120e+02  4.2161078232119553e+02  4.2484953448456696e+02  2.9526881408059626e+02  2.9051342339870030e+02  2.9374514374611249e+02  3.0097134044101949e+02  3.0565442156524210e+02  3.0246201469164600e+02  4.0271299732867521e+02  4.0906402241737055e+02  4.1289746766748317e+02  4.0654521859611935e+02  4.1037775620806963e+02  6.1911134336176394e+02  6.1270451294116162e+02  6.0884170876524990e+02  6.1524648119277253e+02  6.1138235089367095e+02  4.5292241788610096e+02  4.4656152493450992e+02  4.4272254096960654e+02  4.4908163120616393e+02  4.4524118721150910e+02  2.7312045957336994e+02  2.7944061956753637e+02  2.8325267316142453e+02  2.7693172445775633e+02  2.8074254714876679e+02  2.0411628011723980e+02  2.1022648783148466e+02  2.0704747112121700e+02  1.9801007011811970e+02  2.0117257765516592e+02  9.8936896209683354e+01  1.0502012470756095e+02  1.0185430772390464e+02  2.8073920257547471e+01  3.4632887508132342e+01  3.1479774611935582e+01  9.2857187123579266e+01  9.6004936630685691e+01  5.8762518525759424e+02  5.9083649772007664e+02  4.8813354209224417e+02  4.9375450508923342e+02  4.9055387037852830e+02  2.8857015889625637e+02  2.8716680599907789e+02  2.8465538840890895e+02  6.0186988687311612e+02  6.0408641661589820e+02  6.0662578720996430e+02  4.3581971246231393e+02  4.3801322287939354e+02  4.4052985905664269e+02  4.1982380396213864e+02  4.1762050733942721e+02  4.1510002359936243e+02  3.3620111158133017e+02  3.4092962128298365e+02  3.3774334052770831e+02  5.1322080951404962e+02  5.0629453686851258e+02  5.1300936247136269e+02  5.6755488395905684e+02  5.7449232779147712e+02  5.6776621418149352e+02  5.3194682196164536e+02  5.3887500639417658e+02  5.3216013425976917e+02  7.3173921401233557e+01  7.9978104359624467e+01  7.3384084651107713e+01  5.4779332681892193e+01  4.7982283912229768e+01  5.4576528100188810e+01  3.5951983621629319e+02  3.5258497970014662e+02  3.5926366119248070e+02  1.2472745426992620e+02  1.1791242997803587e+02  1.2452370377875708e+02  1.4317242809092980e+02  1.4999502879504468e+02  1.4338252189347472e+02  1.7824317505068316e+02  1.8507619763115304e+02  1.7845142950047475e+02  2.3012461679412013e+02  2.2322676136633490e+02  2.2987356360922649e+02  3.2408059915312157e+02  3.1720713963417069e+02  3.2387408334860777e+02  3.0649928997731405e+02  3.0841680240581070e+02  3.1111410295957154e+02  2.1203615173313369e+02  2.1418369453635711e+02  2.1686918856503698e+02  1.9612364363895188e+02  1.9401837580667461e+02  1.9134016772460788e+02  3.4169218935088799e+02  3.4367432802921843e+02  3.4636923635369260e+02  1.6089599423953493e+02  1.5885826260594834e+02  1.5618667366551264e+02  1.0690827588671571e+02  1.0900263189527351e+02  1.1167744315654424e+02  3.8536524503411840e+01  3.9860510735739716e+01  4.2530376076443638e+01  9.0981406858616964e+01  8.8883912616589043e+01  8.6219570849343754e+01  4.9536629562932427e+02  4.9736921820883686e+02  5.0008168999371748e+02  5.8570860913397280e+02  5.8357122868599777e+02  5.8085170703541826e+02  5.4994293658579795e+02  5.4787398321329204e+02  5.4516210892524930e+02  4.8185720353930117e+02  4.8462189519288694e+02  6.5343977458302993e+02  6.4731574121115796e+02  6.5044823976139310e+02  6.5342731758540367e+02  6.4800826028964138e+02  6.5044256802478026e+02  6.5932539318003171e+02  6.5639615217428764e+02  6.5933680760850632e+02  6.5641177411782519e+02  1.6442033773543510e+01  2.4004285432596170e+01  1.8189255493149201e+01  1.9935307616443001e+01  2.2254820367157205e+01  6.9804508616782812e+02  6.9807819236555520e+02  7.0264537705006410e+02  6.9811012232163796e+02  7.0261378992488505e+02  7.0718317669926103e+02  6.9804621539585469e+02  6.9807929305141852e+02  7.0264628468488866e+02  7.0261465387006865e+02  7.0718317669926103e+02  6.7950991476570084e+02  6.7236631179521771e+02  6.7543811338968783e+02  6.7951617916338159e+02  6.7237581470261966e+02  6.7545022834365602e+02  9.0001588969110742e+00  9.0297035664667646e+00  4.5302551560609583e+00  9.0602806270267529e+00  4.5000292436125511e+00  0.0000000000000000e+00  2.6096119636260312e+02  2.5659995644516283e+02  2.6183028078572386e+02  2.5573272035257202e+02  2.6009887733833841e+02  3.9048791460908814e+02  3.8610505268733914e+02  3.9135455266726751e+02  3.8523946483630294e+02  3.8962722894367118e+02  4.6517215438495379e+02  4.6957322402523323e+02  4.6430281744138807e+02  4.7044051448620195e+02  4.6603470540920614e+02  6.3232141612565488e+02  6.3675612412554233e+02  6.3507131854369834e+02  6.3064353807224438e+02  6.2895693063091608e+02  8.8902322442364650e+00  8.9747558098924607e+00  4.5307996585713877e+00  4.4446638953429476e+00  0.0000000000000000e+00  2.4192209984057686e+02  2.4664976600828933e+02  2.4355198369260211e+02  3.7135364891630383e+02  3.7610395756771021e+02  3.7298668221068118e+02  4.8424329453012035e+02  4.7954388785872192e+02  4.8266569546835245e+02  6.4731516057075567e+02  6.5343907597627231e+02  6.5343686014125728e+02  6.5932954375377608e+02  6.5343344849753157e+02  6.5933461733902891e+02  6.4801182781100260e+02  4.8129983355560557e+02  4.8757364124600070e+02  4.8701673759426052e+02  2.4895555742056638e+02  2.5016073141320274e+02  2.5539479003432197e+02  2.5016445458922962e+02  2.5660368790830984e+02  3.7762630788736487e+02  3.7923848190454299e+02  3.8449176863472030e+02  3.7964424573308486e+02  3.8650829361119145e+02  6.3922432953869304e+02  6.4020836982743583e+02  6.3408941461069867e+02  4.7728979644760278e+02  4.7643563405819521e+02  4.8215394909466210e+02  4.6993879899539701e+02  4.7079411078069853e+02  4.7606922293481210e+02  6.6416221748326188e+02  6.6469853677929098e+02  6.5879920299612650e+02  6.6469340996437495e+02  6.6991801465014328e+02  6.6938594140922328e+02  6.7460825085137071e+02  6.4090687271834315e+02  6.4632983074401864e+02  6.6992264476756168e+02  2.6163371170462858e+02  2.5650599364563101e+02  2.6172934525879788e+02  3.9116196414486819e+02  3.8641345333979831e+02  3.9125654414173977e+02  4.6451152856568473e+02  4.7004464813291617e+02  4.6441099621254028e+02  2.0807805512072125e+02  2.0011790961377119e+02  1.0292452001877892e+02  3.3307532195399645e+01  9.4956983192950787e+01  5.8976520115705966e+02  6.3519238519032160e+02  6.3005985421412481e+02  6.3115896935428498e+02  6.3687269623753627e+02  2.0412089639425216e+02  2.0012171676748031e+02  2.0411911666999927e+02  2.0807846284419995e+02  9.8943763378549875e+01  9.4962106775368213e+01  9.8940710858231128e+01  2.9065361385823088e+01  3.3801294802556825e+01  2.8570707781479136e+01  1.0292607038366474e+02  5.9382807706054564e+02  5.8976773859273635e+02  5.9382750921079810e+02  2.3808382192468775e+02  2.4544155600924142e+02  2.4351866010047260e+02  2.4000544555400458e+02  3.6750903652442435e+02  3.7449221127181573e+02  3.7256694231147503e+02  3.6943334723254083e+02  4.8076390106497814e+02  4.8562774377639784e+02  4.9174897257870111e+02  4.9119231069444373e+02  6.9064766896124956e+02  6.8280298788425205e+02  6.8837364387093203e+02  6.8610026124900810e+02  6.8507983707787650e+02  6.9064722737023885e+02  6.8280495437856973e+02  6.8837371616334042e+02  6.8508160325209644e+02  6.7705922436823460e+02  6.7705562550240268e+02  1.6716579731765606e+02  1.6199091156362971e+02  1.6515355874576809e+02  5.5630850583164738e+02  5.5105456346803840e+02  5.5426572259514899e+02  5.9784969714520514e+02  4.2381606887969457e+02  4.3181831079623385e+02  5.9784891935786231e+02  4.2780737008803004e+02  4.2381538839546982e+02  4.2781051033005639e+02  4.3181373098342794e+02  2.9808516656283354e+02  3.0373548104501236e+02  3.0229251553855397e+02  2.9952778946040678e+02  3.5105245150369956e+02  3.4517492372743095e+02  3.5160653926941080e+02  1.8653644724675019e+02  1.8599130648990379e+02  1.9237083059892137e+02  2.2169643680447308e+02  2.1585387958746207e+02  2.2224896757177740e+02  3.1572025732996258e+02  3.0984919456346995e+02  3.1627505557512012e+02  4.6512750235867969e+01  4.0709731814833262e+01  4.7061083484341005e+01  8.1429326249249058e+01  8.0886672849564192e+01  8.7240017562628609e+01  1.1643821264416947e+02  1.1062144271989395e+02  1.1698827598454915e+02  1.5145430886427872e+02  1.5090938656493086e+02  1.5728335059746956e+02  5.4035821687576163e+02  5.3980449413472843e+02  5.4627609071448114e+02  5.7597535992221776e+02  5.7542176098626305e+02  5.8189936195455437e+02  5.0480421356600522e+02  4.9889364675595903e+02  5.0536138149113026e+02  2.4500940166980132e+02  2.3957417210234598e+02  2.4105964995833554e+02  3.7411614752148466e+02  3.6905784747444073e+02  3.7060366061376675e+02  3.3214926876784341e+02  3.2833636660809071e+02  3.3259289218849318e+02  3.2789258356664334e+02  3.3170626691985763e+02  5.2215332652981431e+02  5.1790406490820362e+02  5.2258485401618987e+02  5.1746958332104998e+02  5.2172310791770849e+02  5.2301711939079337e+02  5.2726529076621500e+02  5.2769940338149206e+02  5.2345061667437335e+02  3.3894623777957622e+02  3.3439588661534123e+02  3.3714255420857899e+02  2.4621356892873069e+02  3.7613340927941817e+02  2.4499521789116717e+01  2.5855664236185964e+02  3.8807706272195048e+02  6.3388627733147848e+02  4.6758539548467678e+02  2.4311296480877996e+02  3.7262937392368048e+02  2.9191858754213325e+02  2.9332720842304241e+02  2.9667753204273998e+02  4.0167318013707160e+02  4.0854195814656890e+02  4.0219266596988513e+02  6.2015597894576160e+02  6.1322818384391371e+02  6.1963555303254145e+02  4.5382956114524461e+02  4.4701609027898593e+02  4.5337733497976296e+02  2.7222677045619059e+02  2.7899211027126489e+02  2.7267309319302802e+02  1.3394943096965179e+02  1.3856280906177849e+02  1.3395352827536394e+02  1.3855889172857206e+02  1.3394525722419704e+02  1.2934006753741798e+02  1.2933576523259276e+02  6.3976443686538097e+01  6.8577433498162279e+01  6.3981144362868598e+01  6.8572887598347961e+01  6.3971870242996033e+01  5.9379794432890783e+01  5.9375083501916258e+01  6.8035581649242442e+02  2.8045458179128178e+02  2.7996465282143083e+02  2.8631558103239468e+02  6.1167255225669555e+02  6.0574102907907286e+02  6.1217211181380037e+02  4.4554933818425638e+02  4.3965442707231074e+02  4.4604350344844585e+02  4.1007378900518131e+02  4.0958252771424236e+02  4.1596089482086336e+02  3.3978037436326736e+02  3.3618637231736250e+02  3.3574337174064431e+02  5.2960116246325777e+02  5.2609224372210372e+02  5.2566220958400766e+02  5.1557138368779874e+02  5.1907839030009234e+02  5.1951001658842404e+02  1.6986770167674459e+02  1.6403023931715887e+02  1.6538139990076925e+02  1.6851765313681585e+02  5.5905150458804167e+02  5.5312494813296007e+02  5.5449677429973815e+02  5.5768083735114521e+02  0.0000000000000000e+00  0.0000000000000000e+00  4.5302420403448238e+00  7.0718317669926103e+02  7.0718317669926103e+02  7.0264628942858883e+02  7.0718317669926103e+02  0.0000000000000000e+00  2.5932869508979718e+02  3.8883899553659523e+02  6.3332861453779003e+02  4.6685660540325586e+02  6.9434645438779535e+02  6.9437745498478853e+02  6.9434747933388439e+02  6.9437813503467987e+02  3.5401693066669488e+01  2.9964708920608349e+01  3.5159513562349801e+01  3.4938011721256117e+01  3.0213582994068624e+01  2.5020945958334476e+01  2.6692988171580777e+02  2.6702849114212972e+02  3.9641751488417901e+02  3.9651387311807423e+02  4.5917041087589809e+02  4.5906567037885310e+02  6.2565516056109186e+02  6.2455721805983944e+02  2.3558939427069754e+02  2.3410430891726548e+02  3.6505926818612056e+02  3.6351542095356058e+02  2.3217094917264536e+01  2.4131701737029935e+01  2.9071523580375054e+01  1.2719769062881999e+01  1.2751949543037803e+01  1.7270604776192394e+02  1.7405410346815202e+02  5.6193323112229518e+02  5.6330177555548585e+02  1.5865901319365470e+01  1.2377040749602131e+01  1.2463068645175465e+01  1.7100805255676906e+02  1.7654910159803148e+02  1.7487927185655670e+02  5.6020948440107418e+02  5.6583505906825201e+02  5.6413931893804966e+02  2.6973695954465700e+02  2.6578323309380801e+02  2.6491744085051317e+02  3.9945816398268016e+02  3.9540592083659487e+02  3.9454204638707949e+02  4.5617999254972358e+02  4.6024116273200593e+02  4.6110759153521508e+02  6.2276239026014184e+02  6.2586002398209246e+02  6.2754005084918367e+02  2.3723144642209112e+02  2.3176487455758570e+02  2.3337918631287235e+02  3.6671761421947701e+02  3.6117603013826488e+02  3.6281131030415378e+02  2.2747376757950281e+01  1.6936076270986888e+01  1.7427438505133747e+01  5.6410135420533550e+02  5.5791755399108274e+02  5.5539254454206286e+02  5.5173516991259953e+02  5.6157669142709472e+02  9.8949749271248848e+01  1.0211682942192670e+02  1.0528945205832893e+02  9.5777086481360897e+01  9.2611417913129870e+01  2.0985247009312576e+02  2.0380361863823885e+02  2.0093850560833394e+02  1.9775750058469617e+02  2.0698697129637188e+02  1.2816534401634215e+02  1.3392440654086374e+02  1.3681884746209658e+02  1.3968530463000317e+02  1.3105949359806772e+02  5.8209848762234721e+01  6.3953372601025997e+01  6.6839280358531838e+01  6.9698621469379077e+01  6.1095549891643088e+01  1.7484152650390058e+02  1.6626340860338010e+02  1.7235488346499469e+02  1.6875029116917233e+02  1.6266017267919491e+02  2.3195330787777851e+02  2.3502012187929694e+02  2.3693552048784122e+02  3.6172957935954730e+02  3.6462062622967267e+02  3.6653980587298560e+02  4.9427265020915655e+02  4.9064339486674777e+02  4.8925969140962621e+02  2.9106867338323491e+02  2.9457797584931950e+02  2.9601762967360753e+02  3.2698289361113251e+02  3.2978960820883515e+02  3.3159070588786250e+02  2.9988023317974859e+02  3.0128561326177811e+02  3.0448847831589654e+02  4.2166297668469923e+02  4.3097888630450603e+02  4.2473453010160426e+02  4.2790615265953136e+02  4.3414990888693058e+02  6.0004353579584063e+02  5.9370348343829903e+02  5.9059651903054919e+02  5.8736629746068331e+02  5.9693631274808365e+02  2.2478535209505576e+01  2.7044932871587097e+01  2.2646173443106017e+02  2.2810209896619585e+02  3.2045474785352252e+02  3.2578140984051157e+02  3.2215586666362327e+02  3.2746897129173044e+02  1.2113212795355595e+02  1.2641236279598681e+02  1.2281633967927938e+02  1.2807742963701577e+02  5.0956787070768002e+02  5.1493783202333316e+02  5.1127929530749287e+02  5.1662602938805924e+02  1.4676826458885438e+02  1.4147778560262071e+02  1.4507355584307527e+02  1.3980285549557456e+02  5.7121195279424228e+02  5.6949172993692207e+02  5.3559875790676290e+02  5.3022784066267752e+02  5.3387981522497034e+02  5.2853588377690994e+02  7.6759454387511724e+01  7.1483281153676160e+01  7.5068492117497357e+01  6.9812996948697503e+01  5.1193512554879163e+01  5.6459582975146702e+01  5.2873363343606336e+01  5.8120110712309142e+01  1.8184512496078634e+02  1.8015072610298907e+02  3.5583844488285956e+02  3.5748931840413940e+02  4.0368806207536795e+02  3.9997970677467850e+02  3.9830860398918350e+02  4.0538021420459376e+02  4.5194251582512499e+02  4.5560239234794318e+02  4.5735290944636409e+02  4.5018268686852207e+02  6.1811110105703085e+02  6.2186202156124648e+02  6.2353444370780346e+02  6.1641354519000868e