<?xml version="1.0"?>
<VTKFile type="UnstructuredGrid"  version="0.1"  >
<UnstructuredGrid>
<Piece  NumberOfPoints="2690" NumberOfCells="4864">
<Points>
<DataArray  type="Float64"  NumberOfComponents="3"  format="ascii">-5.08090898344607 22.0176835978539 0  -5.669712031489794 21.28034265357782 0  -5.079321969944237 21.51912942558562 0  -5.077422134481303 21.01776118989064 0  -5.67132067566468 21.78067065533103 0  -6.261704056334124 21.54080648436501 0  -9 21.99999999996945 0  -8.408689539262891 21.26619537079721 0  -9 21.49999999997139 0  -9 20.99999999997333 0  -8.408974852737614 21.76617484695129 0  -7.817682201742117 21.53230295662224 0  -9 32.9999999999446 0  -8.414923400762301 32.26613738455883 0  -9 32.49999999994358 0  -9 31.99999999994255 0  -8.41520827643353 32.76614298520398 0  -7.830147177875363 32.53224341553376 0  -5.122258307680442 33.01910582693272 0  -5.623937167569545 32.31526553965229 0  -5.120606530314086 32.52164923079484 0  -5.118568039022358 32.01848580995171 0  -5.62560486437917 32.81575757326191 0  -6.128920433841641 32.6096640343372 0  -5.202624999414282 54.01819236167816 0  -5.777513184968966 54.75484410324528 0  -5.77592324053053 54.25560694600222 0  -6.348954739139774 54.49035110519748 0  -5.204511987320872 54.51955906181923 0  -5.206142208141051 55.01837079540901 0  -9 54.99999999998974 0  -8.496900707108622 54.29923028834381 0  -9 54.49999999998872 0  -9 53.99999999998769 0  -8.497153813372879 54.79915328455277 0  -7.994107463501432 54.59833165766947 0  -9 39.99999999995897 0  -8.419763037746465 40.74107777858747 0  -8.419478023122664 40.24108199510276 0  -7.839228618598523 40.48211032269865 0  -9 40.49999999996 0  -9 40.99999999996102 0  -5.152549949373162 41.01687976766773 0  -5.704842358577248 40.28600282070744 0  -5.150910285925861 40.51963441182406 0  -5.149035499634036 40.01901547467726 0  -5.706452496926313 40.78571684687234 0  -6.260380477752254 40.55145418654497 0  -9 55.99999999999179 0  -8.452423163542603 56.74663672463548 0  -8.452173345773543 56.24658788249413 0  -7.904608145806112 56.49317539684955 0  -9 56.49999999999282 0  -9 56.99999999999384 0  -5.210322066847658 56.01736049445793 0  -5.760506208964229 56.76075814845467 0  -5.758944313741496 56.26068276243507 0  -6.307242379507338 56.50180527909362 0  -5.212325850193576 56.52014482528173 0  -5.213951754555501 57.0184309629989 0  -7.500133488223035 43.01001766461941 0  -6.686510750780279 43.12382210064049 0  -7.271758036336773 43.34905563186872 0  -7.043528616622016 43.68810677653518 0  -6.914735135902228 42.78467379430146 0  -6.329084925451301 42.55933718497676 0  -6.673900424028947 49.01893365812195 0  -7.482861465450632 48.90406457655922 0  -6.900774109377402 48.67976298802921 0  -7.12781924166543 48.34053415618277 0  -7.255832847661846 49.24319845342583 0  -7.837491580112137 49.46759847229446 0  -6.66699013538757 46.01778001442761 0  -7.478356685142074 45.90331646157392 0  -6.894569672863816 45.67839776452058 0  -7.12230844027977 45.33910736656778 0  -7.250627942325396 46.24259274122626 0  -7.834010242926693 46.46733917483387 0  -6.577867653116754 7.0183919718852 0  -7.42023786760995 6.903802187438665 0  -6.814174374486795 6.679211338170085 0  -7.050641260308256 6.340034732360341 0  -7.183781188429968 7.242975417601284 0  -7.789441013537107 7.467546245421816 0  -7.48092426284742 30.00990492143962 0  -6.656871385676138 30.12356926652825 0  -7.249626183457971 30.3486696970128 0  -7.018479266783092 30.68737212178337 0  -6.888020251742701 29.78474498592288 0  -6.294856056055328 29.55968512415496 0  -6.571354031954725 4.01750618344739 0  -7.416328100497048 4.119593402051777 0  -6.809623553615827 4.353284874849897 0  -7.047763998880157 4.689006362982264 0  -7.178196436766045 3.783836834823288 0  -7.78525740926136 3.550281547882023 0  -6.584556338878411 10.01854660493207 0  -7.424906705858232 10.12028921089454 0  -6.821559342144067 10.35409373968108 0  -7.058426071848529 10.68964196432571 0  -7.188027030799391 9.784759737664604 0  -7.791759776280589 9.550950227805519 0  -6.591263493273654 13.01871504993775 0  -7.428962760723435 12.90406223379586 0  -6.826249182130655 12.67954051904058 0  -7.061394010255752 12.34037154217866 0  -7.193821564161833 13.24325774458681 0  -7.796133328748494 13.46774899308721 0  -6.598015626786405 16.0190011713532 0  -7.433377475126471 15.90414699079989 0  -6.832338094124965 15.67984800541312 0  -7.066824509585746 15.34064837095399 0  -7.198905490994135 16.24327814435003 0  -7.799532201999011 16.46766207677235 0  -6.604979530571231 19.01701950724688 0  -7.438246048350705 19.11909337271064 0  -6.840051707330717 19.35225839128643 0  -7.07495904746897 19.68760507295265 0  -7.203323819297506 18.78369079310116 0  -7.801946321888719 18.55031325492732 0  -6.623309922201383 27.01638442081033 0  -7.450202788693523 27.11869619806814 0  -6.856556730849797 27.35198345803295 0  -7.089659268771702 27.68760845030182 0  -7.21709814443894 26.78296971513938 0  -7.811140171476172 26.54970431859072 0  -8.281929637382001 19.09891455320216 0  -8.042003024431787 18.82458583514701 0  -8.400814350084669 18.27520627258705 0  -8.640771939572794 18.54953523405868 0  -9 17.99999999998495 0  -8.287430004477388 27.09871457914108 0  -8.049347446343681 26.82421173696286 0  -8.405416445824736 26.27483566306876 0  -8.643528564352749 26.54935388469504 0  -9 25.99999999995395 0  -8.279712753650047 15.91173666416968 0  -8.03955875148686 16.18970945611832 0  -8.399921087229457 16.73379115301551 0  -8.640044117403967 16.45583933192161 0  -9 16.99999999998883 0  -5.822084608315969 30.11554793320061 0  -6.05840297646786 29.8375970824437 0  -5.701289977285795 29.29287271204115 0  -5.464960832872747 29.5716590455393 0  -5.106970529738599 29.01767766765936 0  -8.277680130288871 12.91172872411181 0  -8.036844276697991 13.1897351534773 0  -8.3982172003562 13.73388223115543 0  -8.639024283029588 13.45587295589112 0  -9 13.99999999999401 0  -8.275796636396073 10.09947504296332 0  -8.033839029704801 9.825213340805933 0  -8.395728067173444 9.275472259189145 0  -8.637716419428033 9.549734018132041 0  -9 8.99999999999857 0  -8.271865752191498 4.099145631656955 0  -8.028616319204389 3.824728279792278 0  -8.392507037826123 3.275115129675237 0  -8.635772734838053 3.54953615470451 0  -9 2.999999999998668 0  -8.273671055004296 6.911598609000243 0  -8.031493869202396 7.189568925508407 0  -8.394870366057367 7.733778330082378 0  -8.637018015812558 7.455810086025419 0  -9 7.999999999999485 0  -8.300392098428723 45.91137472968779 0  -8.067138173023361 46.18933610455815 0  -8.417158550754678 46.73370229333278 0  -8.650382122006448 46.45574278688667 0  -9 46.99999999997333 0  -8.302464927654718 48.9116887195221 0  -8.069912462300673 49.18965380577529 0  -8.418905075029715 49.73375750447704 0  -8.651425774749807 49.45581832604775 0  -9 49.99999999997949 0  -5.862318019251723 43.11576604454665 0  -6.095632673748605 42.83754791688073 0  -5.743032902658538 42.29227979167 0  -5.509715237455092 42.5714325519371 0  -5.15619364609689 42.01694894085165 0  -5.798513056170356 23.93817617432263 0  -6.042528793194154 24.20399668215859 0  -5.689322108627084 24.74790983871054 0  -6.286409334194829 24.46987706961847 0  -5.4454171184116 24.48292749109373 0  -5.092271230814121 25.01755245290265 0  -8.309242307134713 52.08863116237168 0  -8.072339720208841 51.82270127853286 0  -8.417488243590178 51.27846056453723 0  -7.835306334142325 51.5568217506612 0  -8.654427394615659 51.54438942438664 0  -9 50.99999999998153 0  -5.842195739605761 38.10529384026373 0  -6.081359002910668 37.83552896733718 0  -5.729312522175529 37.29556792979875 0  -6.320653828290435 37.56581868784984 0  -5.49013604340867 37.56634595449421 0  -5.137148173850627 37.01615986438632 0  -5.832378378428783 34.93800689038223 0  -6.073835245813205 35.20369999902269 0  -5.72440520785902 35.74739010530843 0  -6.315157322080442 35.46944946777072 0  -5.483047394784857 35.4826628621729 0  -5.133707014328689 36.0167231361279 0  -7.93642211777532 50.50840328726392 0  -7.885835297147169 51.03263512713583 0  -8.468346440108373 50.75415479071059 0  -6.214242701223917 36.51745705885941 0  -6.267467815832678 37.04152831303094 0  -5.675799690027358 36.76993419153663 0  -6.264673930339505 35.99333412416298 0  -5.674168832391716 36.26972822110684 0  -6.047279225299897 25.27916544372507 0  -6.166807136642936 24.87455787235535 0  -5.569930164366934 25.15159339941198 0  -8.050631632909976 25.75217179454985 0  -7.930840277109032 26.15093740607164 0  -8.525372474387485 25.87608887334711 0  -7.008028455803493 34.38880558131802 0  -6.66140718296416 34.92923134498895 0  -6.910694765861764 35.25203740965831 0  -7.257339752954501 34.7117597288462 0  -7.506491381948316 35.03468214027466 0  -7.153324359284554 52.6369702448232 0  -7.494121956935314 52.09699177987942 0  -7.249089334732748 51.77446056255962 0  -6.908310523627639 52.3144945871791 0  -6.663130425181432 51.99206934361473 0  -7.016314530995645 38.63688731058222 0  -6.668670121106512 38.10145560070571 0  -6.915854259625642 37.77518775938433 0  -7.263480957807205 38.31077737655218 0  -7.510805490946859 37.98462809632142 0  -6.986746991503362 23.38889985046435 0  -6.636395598383829 23.9294528013634 0  -6.888329359799597 24.2523398268844 0  -7.238707071457339 23.71191184148464 0  -7.490509286468117 24.03487416472775 0  -7.901768988628173 17.50829109071164 0  -7.85182975030487 18.02932879250504 0  -8.451017202357763 17.75409749242791 0  -7.850674845491131 16.98798625322922 0  -8.450752002289455 17.25417224305551 0  -7.892492913947732 8.508480529980346 0  -7.842102746199786 9.029717087045514 0  -8.44637249416258 8.754242111438851 0  -7.933860229542653 2.422965642397143 0  -7.859508428766763 2.986601294934844 0  -8.467048651652467 2.711507540686653 0  -7.840991978310536 7.988018023197502 0  -8.446117711579712 8.254234309595661 0  -7.886982566642928 49.98801138872308 0  -8.468074562551118 50.25422963956682 0  -6.141858059184893 41.61023853406345 0  -6.235516647958761 42.08486658655443
[...]
<PointData  Scalars="f_29"> 
<DataArray  type="Float64"  Name="f_29"  format="ascii">3.9668487544114947e+02  3.8297769762238704e+02  3.8736691502836868e+02  3.7806713480532068e+02  3.9224020947855092e+02  3.8781768663578384e+02  3.9653624921744012e+02  3.8283434738089306e+02  3.8721616091186166e+02  3.7790935954892120e+02  3.9209884825462802e+02  3.8773180861852995e+02  6.0212599888444072e+02  5.8810373963613836e+02  5.9258659015356125e+02  5.8306333403233350e+02  5.9758572104447285e+02  5.9311348471027475e+02  6.0222677684024598e+02  5.8888352693214699e+02  5.9273232870474726e+02  5.8326638838421263e+02  5.9834640771906993e+02  5.9447744296273800e+02  1.0079673005213114e+03  1.0226806826260818e+03  1.0127585150803632e+03  1.0174513593477652e+03  1.0179285744786499e+03  1.0279352795408759e+03  1.0277593332583344e+03  1.0138060718569051e+03  1.0178279649066434e+03  1.0078968752689008e+03  1.0237241313695332e+03  1.0197093841059532e+03  7.3528637949665529e+02  7.4960394202190423e+02  7.3996355266858438e+02  7.4457141283784108e+02  7.4498652101634696e+02  7.5467590349863394e+02  7.5481873495503123e+02  7.4067430353454199e+02  7.4514217178183105e+02  7.3545322019500065e+02  7.5032818783745813e+02  7.4583271564922234e+02  1.0475456470956988e+03  1.0624087534059133e+03  1.0524575419475188e+03  1.0573187364386997e+03  1.0575118781396257e+03  1.0675308305880137e+03  1.0476876093929748e+03  1.0625167534028897e+03  1.0525714969890682e+03  1.0573883928712044e+03  1.0576439079242962e+03  1.0676665289007651e+03  7.9323250699104585e+02  7.9534675711183547e+02  7.9975243802263333e+02  8.0627958125107682e+02  7.8883402768333417e+02  7.8443601650157086e+02  9.0971210374269401e+02  9.0755987700705532e+02  9.0311359378068812e+02  8.9652004237835649e+02  9.1416426687126204e+02  9.1861116829102593e+02  8.5131880602873537e+02  8.4917682465097926e+02  8.4476868293366454e+02  8.3822004120005556e+02  8.5573404851553062e+02  8.6014590305569777e+02  1.2404694946106505e+02  1.2207046723644191e+02  1.1801560943299469e+02  1.1198760649013086e+02  1.2810769543138559e+02  1.3216365038705109e+02  5.4549588109912725e+02  5.4755604639618684e+02  5.5184742824300622e+02  5.5820725775745041e+02  5.4121491250824226e+02  5.3693478701693948e+02  7.0669668803862933e+01  7.2555776193924984e+01  7.6645078738012273e+01  8.2622620055782846e+01  6.6586324021040184e+01  6.2503617350481136e+01  1.7780234440163451e+02  1.7970771269805010e+02  1.8385855086555821e+02  1.8991613671833264e+02  1.7365633363125252e+02  1.6951413111135500e+02  2.3189763996705184e+02  2.2989323170958968e+02  2.2578546382782298e+02  2.1967658463148661e+02  2.3601032618581505e+02  2.4011920352532002e+02  2.8634518561772478e+02  2.8433474873298911e+02  2.8019131316770921e+02  2.7404228598149462e+02  2.9049429971785139e+02  2.9463806289423599e+02  3.4121015083782481e+02  3.4317490297834911e+02  3.4740580515834364e+02  3.5360717462417796e+02  3.3698952521073056e+02  3.3276660299270947e+02  4.8934609157325747e+02  4.9134239399051120e+02  4.9564021969391376e+02  5.0193828406649021e+02  4.8505726696592592e+02  4.8076450740779092e+02  3.4287491031626013e+02  3.3782219665176018e+02  3.2779234763381032e+02  3.3283013078707432e+02  3.2284886822298301e+02  4.9104190702701186e+02  4.8590337168423503e+02  4.7570125469579438e+02  4.8082535313192159e+02  4.7065861894061925e+02  2.8454590827039391e+02  2.8959068987957482e+02  2.9953011373536515e+02  2.9447780043151209e+02  3.0437462229879321e+02  5.4728931971443626e+02  5.4211513951877657e+02  5.3189764426231818e+02  5.3702077864187402e+02  5.2688986692067067e+02  2.3009729065251534e+02  2.3510690704726838e+02  2.4497104088184159e+02  2.3996526866096565e+02  2.4980136256782862e+02  1.7940645471659477e+02  1.7446148385874983e+02  1.6463853788540243e+02  1.6956960366421251e+02  1.5979559931809990e+02  7.2264472880681652e+01  6.7384412156175898e+01  5.7689844104403477e+01  6.2566895176209357e+01  5.2925806367307572e+01  1.2227084616293016e+02  1.2721606409391735e+02  1.3695352488690804e+02  1.3200189552245266e+02  1.4169604758851500e+02  8.4940387394561003e+02  8.5477349236986799e+02  8.6535518610196925e+02  8.5998884449369075e+02  8.7054258714251773e+02  9.0779085439408436e+02  9.1319968223610283e+02  9.2386099245288108e+02  9.1844467348455623e+02  9.2906481625378092e+02  7.9507693219567500e+02  7.8975936395523786e+02  7.7926168246367058e+02  7.8452776823608849e+02  7.7412564941774917e+02  4.3199933768934017e+02  4.3697098163946731e+02  4.4705166891468548e+02  4.4194061245711902e+02  4.4204237297812000e+02  4.5214815438877724e+02  9.7012620244329162e+02  9.6487339043247084e+02  9.5422251493656381e+02  9.5961911723952312e+02  9.5945992829734962e+02  9.4885606154700110e+02  6.9876413829495129e+02  6.9365909133714604e+02  6.8337515740125707e+02  6.8855073187539108e+02  6.8842073765976966e+02  6.7824080870407022e+02  6.3841960943010190e+02  6.4351265706716981e+02  6.5383011011598069e+02  6.4860440275241410e+02  6.4869039266751645e+02  6.5902205670143576e+02  9.3902120459127366e+02  9.4932122739718659e+02  9.4390667110112395e+02  6.6860111117708311e+02  6.7857536815471133e+02  6.7340033613431990e+02  6.5859228498274445e+02  6.6383977688439199e+02  4.5699461148201834e+02  4.4946191542764706e+02  4.5460715098395411e+02  4.6592851468921572e+02  4.7334660384985420e+02  4.6826916620146233e+02  6.2816826271518653e+02  6.3837640661859336e+02  6.4453603058039243e+02  6.3431753969801650e+02  6.4046950011300817e+02  9.8081858060644083e+02  9.7021061151093431e+02  9.6383487160140942e+02  9.7443387923022522e+02  9.6805416731437481e+02  7.0907551710010341e+02  6.9879875368573425e+02  6.9259513121225325e+02  7.0286073711166625e+02  6.9664865018307319e+02  4.2197680583416314e+02  4.3194824358601676e+02  4.3796003642994333e+02  4.2797893195305261e+02  4.3398273169264957e+02  3.1366867513679028e+02  3.2321825003354616e+02  3.1822583608761062e+02  3.0414429956642169e+02  3.0905112235643134e+02  1.5080833438492425e+02  1.6016268498049388e+02  1.5526843386736371e+02  4.2561720928126711e+01  5.2534250705228871e+01  4.7716956149392018e+01  1.4147738281114971e+02  1.4628102755587614e+02  9.2880703880402064e+02  9.3407155056867055e+02  7.6619956606950780e+02  7.7531509987691049e+02  7.7014527229142448e+02  4.4635754682932844e+02  4.4415172207266158e+02  4.4016609420028755e+02  9.5232685630179992e+02  9.5597253058778574e+02  9.6018872198667998e+02  6.8145892456341960e+02  6.8500609988177166e+02  6.8904905864888985e+02  6.5568413697266976e+02  6.5214705328893672e+02  6.4807184534247290e+02  5.2191195834448342e+02  5.2942112585311691e+02  5.2438526759931074e+02  8.0699566389166705e+02  7.9569805833542591e+02  8.0664043960715810e+02  8.9579286424874203e+02  9.0719366442081389e+02  8.9615749956535183e+02  8.3748827801567518e+02  8.4881075573098053e+02  8.3785526685715297e+02  1.1131221593841470e+02  1.2173045206345270e+02  1.1165192340230270e+02  8.3212512081205858e+01  7.2852763985426165e+01  8.2919954289541508e+01  5.5905107864854438e+02  5.4797345496166702e+02  5.5863321564001410e+02  1.9050849703064799e+02  1.8000633239250860e+02  1.9021458452488986e+02  2.1899067326012170e+02  2.2954842566007642e+02  2.1933554334393392e+02  2.7336029251384775e+02  2.8399130132610759e+02  2.7370238538013689e+02  3.5437095518893523e+02  3.4356019594521342e+02  3.5399384512264038e+02  5.0256831689726658e+02  4.9165891909542819e+02  5.0225592540605942e+02  4.7471292795930970e+02  4.7773822023219293e+02  4.8202770725926746e+02  3.2607405311225750e+02  3.2942021557588322e+02  3.3363974224908958e+02  3.0123329178188447e+02  2.9793733276561443e+02  2.9378674293443112e+02  5.3060658746130537e+02  5.3377295187641312e+02  5.3804753714172057e+02  2.4646875119195209e+02  2.4329483187322123e+02  2.3918059934203475e+02  1.6309863277078392e+02  1.6630660727222471e+02  1.7044744890224501e+02  5.8498518388042299e+01  6.0501705491617329e+01  6.4582503257416775e+01  1.3863042101933880e+02  1.3539862619074998e+02  1.3133547878900035e+02  7.7791206413300836e+02  7.8117521944640077e+02  7.8556972568515891e+02  9.2568035136033109e+02  9.2214746673761022e+02  9.1769350374444809e+02  8.6694783270635662e+02  8.6354763243374953e+02  8.5913014391447189e+02  7.5601714058777588e+02  7.6050714352920522e+02  1.0377790542499208e+03  1.0276180543211588e+03  1.0328110928704796e+03  1.0377019447008336e+03  1.0287046134234699e+03  1.0327254304969565e+03  1.0475091875055823e+03  1.0426223720898399e+03  1.0475844464701590e+03  1.0427320765217614e+03  2.4911070556663283e+01  3.6394383520475984e+01  2.7569901994161988e+01  3.0224681718574985e+01  3.3729498863779156e+01  1.1120158094499959e+03  1.1120763982422789e+03  1.1197124031339724e+03  1.1121335552072401e+03  1.1196565930309198e+03  1.1273019851819597e+03  1.1120193541389679e+03  1.1120810164003663e+03  1.1197154118920591e+03  1.1196592036302518e+03  1.1273019851819597e+03  1.0810891351003793e+03  1.0691994229379111e+03  1.0742916203288034e+03  1.0811389705376182e+03  1.0692666086597940e+03  1.0743816872271489e+03  1.3622988910141530e+01  1.3676542765859123e+01  6.8610892093502587e+00  1.3726825595379038e+01  6.8105916532724233e+00  0.0000000000000000e+00  4.0282014076846690e+02  3.9597203056402390e+02  4.0421025358390278e+02  3.9458268603419646e+02  4.0143918749428610e+02  6.0854744244849041e+02  6.0153595563478621e+02  6.0995731135152971e+02  6.0012672057279894e+02  6.0714572443820123e+02  7.2889499525642861e+02  7.3603710777571177e+02  7.2750619635795374e+02  7.3742111932783928e+02  7.3027233321970368e+02  1.0027421020515750e+03  1.0101009773409132e+03  1.0072833377501252e+03  9.9994277918828311e+02  9.9712938954368462e+02  1.3461312311492170e+01  1.3595603190738290e+01  6.8623187283527098e+00  6.7274109658144603e+00  0.0000000000000000e+00  3.7296886322484272e+02  3.8039649815489503e+02  3.7554425981054368e+02  5.7790710576183494e+02  5.8550948575776863e+02  5.8049996874307169e+02  7.5980849832193678e+02  7.5218832492651654e+02  7.5722803696284768e+02  1.0276023482929306e+03  1.0377731210550294e+03  1.0377552860363289e+03  1.0475338024936202e+03  1.0377330682921038e+03  1.0475678256748722e+03  1.0287294981105315e+03  7.5509324041682964e+02  7.6527541360254520e+02  7.6435276354481209e+02  3.8397805599366893e+02  3.8585361529676243e+02  3.9409625124908706e+02  3.8589658965148010e+02  3.9601179798749052e+02  5.8798203612489942e+02  5.9054634087758723e+02  5.9896974076937659e+02  5.9123020084950576e+02  6.0221344675522892e+02  1.0141550486766380e+03  1.0158065483981943e+03  1.0056393893083892e+03  7.4856946109657338e+02  7.4720199152983491e+02  7.5646229300832294e+02  7.3666017446482113e+02  7.3803293821558748e+02  7.4657354184162784e+02  1.0555819885896542e+03  1.0564871520673851e+03  1.0466667462142275e+03  1.0564524813609994e+03  1.0651412735476138e+03  1.0642698959910404e+03  1.0729570780133433e+03  1.0169331676530538e+03  1.0259519557513433e+03  1.0651733685545676e+03  4.0393221917598322e+02  3.9588055862133592e+02  4.0407066500855626e+02  6.0967920083042111e+02  6.0208066490648366e+02  6.0981836160776504e+02  7.2787226872324618e+02  7.3685147341275615e+02  7.2769860326485059e+02  3.1987338081787038e+02  3.0744621110645068e+02  1.5695524413553338e+02  5.0531307717891217e+01  1.4471496122610753e+02  9.3234627421487335e+02  1.0074498265746548e+03  9.9894261155163395e+02  1.0007452575475619e+03  1.0102231731139892e+03  3.1371212544607147e+02  3.0747071636089078e+02  3.1369261186951371e+02  3.1989183623196078e+02  1.5085684560456608e+02  1.4474178543420129e+02  1.5083474762679660e+02  4.4096816844998827e+01  5.1297645913130872e+01  4.3332416066201603e+01  1.5697654072646574e+02  9.3906187274012655e+02  9.3236883523074141e+02  9.3904372669959514e+02  3.6689824173755756e+02  3.7848052022511428e+02  3.7543702967144469e+02  3.6993892178299740e+02  5.7179828540754272e+02  5.8294708518267612e+02  5.7988876593450857e+02  5.7485634747376150e+02  7.5418405823248327e+02  7.6207777034741753e+02  7.7205106784767179e+02  7.7113293955152460e+02  1.0996677337744791e+03  1.0865884359683403e+03  1.0958789823615721e+03  1.0920916448883327e+03  1.0903773919331095e+03  1.0996684823641533e+03  1.0866053158928582e+03  1.0958814836885801e+03  1.0903962766180848e+03  1.0770447732186381e+03  1.0770180616992354e+03  2.5615027008644540e+02  2.4812968695267423e+02  2.5300547894497888e+02  8.7733851599153400e+02  8.6873670454515025e+02  8.7396954004620613e+02  9.4567573092870134e+02  6.6213297620151991e+02  6.7502652741593909e+02  9.4569325650220958e+02  6.6854563100482972e+02  6.6211473498592170e+02  6.6857041784331943e+02  6.7500254163065483e+02  4.6140241820885899e+02  4.7032102321965851e+02  4.6805774842317311e+02  4.6366461594472526e+02  5.4553427545949626e+02  5.3616012666313827e+02  5.4642336903972694e+02  2.8620984422971281e+02  2.8537984390172858e+02  2.9529997961524577e+02  3.4111401883745839e+02  3.3196729345377412e+02  3.4199642839186424e+02  4.8925407721510749e+02  4.7994665205720520e+02  4.9015018581765872e+02  7.0564033290005440e+01  6.1730530065500091e+01  7.1416542376771091e+01  1.2389923281809780e+02  1.2308626904371100e+02  1.3280660545356707e+02  1.7767809784633346e+02  1.6872331988275221e+02  1.7854424161203448e+02  2.3174975215243975e+02  2.3092521287850084e+02  2.4077968177181100e+02  8.5118238654904951e+02  8.5029501246050540e+02  8.6086601854431103e+02  9.0957873444822167e+02  9.0868691821617415e+02  9.1932914799073410e+02  7.9327272778062093e+02  7.8364564111277139e+02  7.9418672212360661e+02  3.7775459024281088e+02  3.6921850343603586e+02  3.7152764984233323e+02  5.8238576972177657e+02  5.7429499548315835e+02  5.7678392496759864e+02  5.1539752445241720e+02  5.0934459276824504e+02  5.1612609945261340e+02  5.0861684107819326e+02  5.1467002753661893e+02  8.2156973994336545e+02  8.1462554022546965e+02  8.2224488116023974e+02  8.1394080106728711e+02  8.2090772025827096e+02  8.2292391364426578e+02  8.2986430014259179e+02  8.3054683884475264e+02  8.2360545377759911e+02  5.2625548773166872e+02  5.1901538214862194e+02  5.2336599278750941e+02  3.7962815357307505e+02  5.8563014830511452e+02  3.7158415868566735e+01  3.9899553254994333e+02  6.0464423758442467e+02  1.0053552196472928e+03  7.3277445230451622e+02  3.7473122246342814e+02  5.8003907502286631e+02  4.5167028096963674e+02  4.5387884464848605e+02  4.5919845076876118e+02  6.2651554346432965e+02  6.3754228901034401e+02  6.2734356360747745e+02  9.8252176683162986e+02  9.7106205298866587e+02  9.8167527176868896e+02  7.1055887979328918e+02  6.9953756140929431e+02  7.0982143581750802e+02  4.2058459470784908e+02  4.3124585745514685e+02  4.2128249269348686e+02  2.0474690822949327e+02  2.1188302660077611e+02  2.0477937174568450e+02  2.1185081658874461e+02  2.0471398349575088e+02  1.9764192395550742e+02  1.9760875040959246e+02  9.7258098710161860e+01  1.0429841207270729e+02  9.7287959677688178e+01  1.0426823435555198e+02  9.7227896126517223e+01  9.0247601662572293e+01  9.0217827597658413e+01  1.0825237817795646e+03  4.3355884166635013e+02  4.3279120009135630e+02  4.4281177475153760e+02  9.6844014430881998e+02  9.5863445346090202e+02  9.6928324554719939e+02  6.9717320416326754e+02  6.8764616138931831e+02  6.9797650285745476e+02  6.4001065504441601e+02  6.3922602246857355e+02  6.4948013560024515e+02  5.2753028927358832e+02  5.2182639443296705e+02  5.2109900998623107e+02  8.3372984234034072e+02  8.2798717657630959e+02  8.2731348623804831e+02  8.1076939170917467e+02  8.1650591955009963e+02  8.1718520053895929e+02  2.6038652829475819e+02  2.5130772426039786e+02  2.5342576472140254e+02  2.5827158015834459e+02  8.8187413112404158e+02  8.7214143665665199e+02  8.7440878976863598e+02  8.7960936012965522e+02  0.0000000000000000e+00  0.0000000000000000e+00  6.8626582542428300e+00  1.1273019851819597e+03  1.1273019851819597e+03  1.1197158713158519e+03  1.1273019851819597e+03  0.0000000000000000e+00  4.0032216610962968e+02  6.0597042856101336e+02  1.0043253538654947e+03  7.3168807642543698e+02  1.1058388927777355e+03  1.1058976877828200e+03  1.1058425165576361e+03  1.1058996874699505e+03  5.3758095111976353e+01  4.5511097151188721e+01  5.3407897663329052e+01  5.3083115199870527e+01  4.5874302238670964e+01  3.7974067890555915e+01  4.1225594925573279e+02  4.1239740858093256e+02  6.1809618534159586e+02  6.1823606045118902e+02  7.1921435344823567e+02  7.1903079568528005e+02  9.9162793308388746e+02  9.8982482757502351e+02  3.6294383061671505e+02  3.6063252464656080e+02  5.6791330293790168e+02  5.6542753245650454e+02  3.5216396266991673e+01  3.6629106177358437e+01  4.4133154384395517e+01  1.9263219472166703e+01  1.9320758897821310e+01  2.6475528414170782e+02  2.6686904140771242e+02  8.8656523489947654e+02  8.8882913686865083e+02  2.4049177972219187e+01  1.8751827976238946e+01  1.8886388333277822e+01  2.6208946634091399e+02  2.7070174480703207e+02  2.6807785939063598e+02  8.8370995939318709e+02  8.9294449499029224e+02  8.9012900936578126e+02  4.1662028426171969e+02  4.1041238287012163e+02  4.0902808123561300e+02  6.2291947432632412e+02  6.1643568790269694e+02  6.1503043196857220e+02  7.1432304344041052e+02  7.2091215917446732e+02  7.2229700829602041e+02  9.8688905851185882e+02  9.9200934299608537e+02  9.9480591791663289e+02  3.6549491658097088e+02  3.5692118773846710e+02  3.5943203268573063e+02  5.7057724047495662e+02  5.6171697420581177e+02  5.6435783114478966e+02  3.4466342800520138e+01  2.5652604435290506e+01  2.6386516345884253e+01  8.9018280217986864e+02  8.8004838820697205e+02  8.7589356959468535e+02  8.6991982861752774e+02  8.8602922572173452e+02  1.5090091147897644e+02  1.5574972495775665e+02  1.6064265163056504e+02  1.4601081755571147e+02  1.4116888324034750e+02  3.2269119748947344e+02  3.1324994838106119e+02  3.0876268562650529e+02  3.0382015602306137e+02  3.1820199760695169e+02  1.9588207788657274e+02  2.0476878114841173e+02  2.0922114648475807e+02  2.1366907437891598e+02  2.0033029299211717e+02  8.8504735189298657e+01  9.7275819304517938e+01  1.0166996269928246e+02  1.0605897499372891e+02  9.2896017762482145e+01  2.6813634094994381e+02  2.5481330726539838e+02  2.6426257152765908e+02  2.5868848657922871e+02  2.4924607826273953e+02  3.5729931489811361e+02  3.6210217908839491e+02  3.6512898434668256e+02  5.6253173398188324e+02  5.6716666931637405e+02  5.7021573791366802e+02  7.7610431375208623e+02  7.7022561914488438e+02  7.6795804721877971e+02  4.5027643023469579e+02  4.5584037151894756e+02  4.5809743717444672e+02  5.0724405156554064e+02  5.1168755235264103e+02  5.1457656246614306e+02  4.6428349897630335e+02  4.6648255737082337e+02  4.7156336676446762e+02  6.5861097190896373e+02  6.7363759817496964e+02  6.6357692208668698e+02  6.6866880569584782e+02  6.7873336730548272e+02  9.4934868129180370e+02  9.3889166954187544e+02  9.3375154423590675e+02  9.2844832908707940e+02  9.4420626786727189e+02  3.4096313553527565e+01  4.1039990591836563e+01  3.4862056909065160e+02  3.5116841693072115e+02  4.9680421421204318e+02  5.0524811212701565e+02  4.9948197423077323e+02  5.0790856272552247e+02  1.8495646312275599e+02  1.9307977894496739e+02  1.8752451200587811e+02  1.9562215733522621e+02  8.0103716776826570e+02  8.0981267582156693e+02  8.0381685320302881e+02  8.1257242547908231e+02  2.2454360382142164e+02  2.1634331830925299e+02  2.2189355533278470e+02  2.1372616757101932e+02  9.0179253210586592e+02  8.9893911570564069e+02  8.4344584425841526e+02  8.3465514976122233e+02  8.4061032788391344e+02  8.3186178668206628e+02  1.1679155478537602e+02  1.0870110592153331e+02  1.1417689764874322e+02  1.0612077409724293e+02  7.7737348650118818e+01  8.5751906680437386e+01  8.0273464183490532e+01  8.8260896641237125e+01  2.7895364999462663e+02  2.7629100003824880e+02  5.5317042221086228e+02  5.5579757955126456e+02  6.2973850275093082e+02  6.2382126417086090e+02  6.2115697641623251e+02  6.3246484348871991e+02  7.0749901570587861e+02  7.1345039354960284e+02  7.1630518223354761e+02  7.0465782168324301e+02  9.7910940745797450e+02  9.8532631067576506e+02  9.8808000569967362e+02  9.7632115964920661e