<?xml version="1.0"?>
<VTKFile type="UnstructuredGrid"  version="0.1"  >
<UnstructuredGrid>
<Piece  NumberOfPoints="2690" NumberOfCells="4864">
<Points>
<DataArray  type="Float64"  NumberOfComponents="3"  format="ascii">-5.105891343913627 22.02311385096039 0  -5.690296527336068 21.28581176122969 0  -5.103837849844111 21.52500244904445 0  -5.101318529195742 21.02319619437423 0  -5.692424594893976 21.7862486017661 0  -6.278856652346375 21.54565690461992 0  -9 21.99999999996945 0  -8.412339626432058 21.26733033657876 0  -9 21.49999999997139 0  -9 20.99999999997333 0  -8.412716482709357 21.76730370987141 0  -7.825080998456398 21.53454573564019 0  -9 32.9999999999446 0  -8.420549897284284 32.26725389005071 0  -9 32.49999999994358 0  -9 31.99999999994255 0  -8.420925811229003 32.76726158651709 0  -7.84149667847938 32.53446674243046 0  -5.160328923832926 33.02495454854973 0  -5.656422357433489 32.3210603306805 0  -5.158201203792658 32.52828713456726 0  -5.155460637195219 32.02414716263422 0  -5.65863623806245 32.82170749408156 0  -6.156836017686948 32.61486177551244 0  -5.266656437674518 54.02373609272342 0  -5.83268844910191 54.76011281730366 0  -5.830580481149997 54.2611127975576 0  -6.394095253995389 54.49502030557085 0  -5.269204969585487 54.52554422938847 0  -5.271314340043268 55.02392594888144 0  -9 54.99999999998974 0  -8.505425647119523 54.30018080411178 0  -9 54.49999999998872 0  -9 53.99999999998769 0  -8.50576379911506 54.80007836249057 0  -8.011261255013457 54.60019050768256 0  -9 39.99999999995897 0  -8.426938245900997 40.7421728906041 0  -8.426562014833582 40.2421788917113 0  -7.85348443514847 40.48428641092265 0  -9 40.49999999996 0  -9 40.99999999996102 0  -5.200304611482731 41.02200549219571 0  -5.745077948784648 40.29155071626592 0  -5.198187943098833 40.52562800660127 0  -5.195679835519276 40.02481419240377 0  -5.747205744512415 40.79117802827037 0  -6.294080464795904 40.55628499853297 0  -9 55.99999999999179 0  -8.462156403602046 56.74764526366985 0  -8.461823391084911 56.24757990432886 0  -7.923995200022703 56.49516037333878 0  -9 56.49999999999282 0  -9 56.99999999999384 0  -5.276893991223742 56.02262565624446 0  -5.818238048138734 56.7660536411836 0  -5.816179199527848 56.26595274361021 0  -6.354974793599139 56.50640952996054 0  -5.279600348542644 56.52630965777279 0  -5.281706034674413 57.02401779524381 0  -7.519788293799455 43.01309958367607 0  -6.716926006512798 43.12864191388584 0  -7.294591886126011 43.35266244200022 0  -7.069585204501704 43.69224134295752 0  -6.941920502326243 42.78893345092019 0  -6.363728035443335 42.56477998494637 0  -6.708870133010322 49.02478669507806 0  -7.505610974647905 48.90784911260375 0  -6.932076581276581 48.68505204872303 0  -7.155517542607396 48.34523940621048 0  -7.282195174313168 49.24753705366397 0  -7.855154985197284 49.47046352908682 0  -6.699766466744411 46.02327328308288 0  -7.49967536087407 45.90686320983323 0  -6.923914325991686 45.68325543051902 0  -7.148274913936277 45.34335805103111 0  -7.275327097563729 46.24674077766969 0  -7.850555617069907 46.47012210666354 0  -6.582469922772036 7.024050824762219 0  -7.423184112366578 6.907484932753518 0  -6.818104944146819 6.684302541700517 0  -7.053954159042182 6.344559164872953 0  -7.18734763471506 7.247223022847394 0  -7.791895460168148 7.470379900111666 0  -7.494440505450117 30.01295346820643 0  -6.677813383679763 30.12831047372585 0  -7.2653915037549 30.35215649264868 0  -7.036541041332431 30.69127653510552 0  -6.906663150353368 29.78902890401475 0  -6.31854684350813 29.56523774258912 0  -6.573991270099858 4.022886644360077 0  -7.418094787475289 4.12310485853438 0  -6.812180823430457 4.358185953417703 0  -7.050208573272718 4.693411318120725 0  -7.180078182218399 3.787834706280142 0  -7.786449238176088 3.552930428292889 0  -6.591211712526373 10.02424744219265 0  -7.429284327755057 10.1240152233674 0  -6.827754955314142 10.35924462371814 0  -7.064124742442518 10.69424375630064 0  -7.192895893155621 9.789041615815284 0  -7.794925226069137 9.55380487055794 0  -6.599978670150458 13.02447490125865 0  -7.434584896340202 12.90782608130298 0  -6.833884859151157 12.68473465263951 0  -7.068003871799262 12.34500125552715 0  -7.200468158423562 13.2475933305691 0  -7.800640054627837 13.47064584613084 0  -6.608817473380276 16.02484808051651 0  -7.440369222725745 15.90793787477848 0  -6.841855292356386 15.6851363523499 0  -7.075114003214707 15.34536341091715 0  -7.207131760672502 16.24762115358121 0  -7.805099085458676 16.47053371073664 0  -6.618025108881661 19.02226171697722 0  -7.446805530745185 19.12245629745522 0  -6.852060195593364 19.35685166459516 0  -7.085873203947446 19.69158303639236 0  -7.212970639505912 18.78765054444901 0  -7.808289155323361 18.55297616329054 0  -6.642172471614254 27.02143309904051 0  -7.462558226594622 27.1219387924532 0  -6.873790101503183 27.35649511279227 0  -7.105221453745803 27.69159148540036 0  -7.231127759006761 26.78670876794671 0  -7.820412960242315 26.55218012512068 0  -8.285860327361965 19.10045814529719 0  -8.047161088950887 18.82668042522827 0  -8.403933916283185 18.27655312558121 0  -8.642674117229458 18.55033134064799 0  -9 17.99999999998495 0  -8.293108190357902 27.10019741549419 0  -8.056842264944935 26.82619182796516 0  -8.410004765631623 26.27606830490437 0  -8.646309205772102 26.55009418924319 0  -9 25.99999999995395 0  -8.282930316837831 15.91347191381778 0  -8.043930628685745 16.1920160017335 0  -8.402753548835324 16.73521497794026 0  -8.64171226970714 16.45669821021069 0  -9 16.99999999998883 0  -5.850508945509437 30.12221611516516 0  -6.084439640302518 29.84370384155669 0  -5.729906319572508 29.29968126980864 0  -5.495981939382637 29.57928795338142 0  -5.140137981497046 29.02313472468376 0  -8.280265849577134 12.91346068874919 0  -8.040371062765004 13.19204844033355 0  -8.400516341684636 13.73533303963321 0  -8.640374023415292 13.4567415839222 0  -9 13.99999999999401 0  -8.277804641736495 10.1011890524252 0  -8.036444075913526 9.827497848180485 0  -8.397263828676261 9.276898770283433 0  -8.638665054599993 9.550589979515747 0  -9 8.99999999999857 0  -8.272677768432008 4.100757985108282 0  -8.029634183559176 3.826863319496244 0  -8.393066315468326 3.276431747282966 0  -8.636131435989958 3.550331158448197 0  -9 2.999999999998668 0  -8.275027771806444 6.913290008756244 0  -8.033380074493454 7.191830389816384 0  -8.396143174273481 7.73519668368764 0  -8.637752578644646 7.45665909270959 0  -9 7.999999999999485 0  -8.310195726937945 45.91300333565042 0  -8.080292908087774 46.19153522213026 0  -8.425478820706751 46.73510427306351 0  -8.655341982722483 46.45657490528408 0  -9 46.99999999997333 0  -8.312927994451336 48.91341806809357 0  -8.083953805771689 49.19195439382946 0  -8.427789045272704 49.73517708326008 0  -8.656720819966118 49.45667470834712 0  -9 49.99999999997949 0  -5.903612080038363 43.12250247454076 0  -6.133579751700859 42.84363996118549 0  -5.785012257806349 42.29890333363691 0  -5.555063624956118 42.57899168233514 0  -5.205111742979128 42.02217065701404 0  -5.820984168654302 23.94491012183237 0  -6.063525252593956 24.21013648422563 0  -5.713387777686316 24.75466997917526 0  -6.30588718089028 24.47544258221889 0  -5.471012074890313 24.49053876124203 0  -5.120777659810912 25.02291433840502 0  -8.320387601247647 52.09015795798624 0  -8.087216553223229 51.82478583567953 0  -8.426714707465845 51.27980576544806 0  -7.853870576818202 51.55947993650526 0  -8.659934383053121 51.54517659430345 0  -9 50.99999999998153 0  -5.878557477161985 38.11195666536089 0  -6.114704543949476 37.8415698829027 0  -5.766096075270776 37.30220279396249 0  -6.351023790052202 37.57124732611391 0  -5.529953895976382 37.57392133750299 0  -5.179937863286519 37.02113414870648 0  -5.865592579084283 34.94468962772491 0  -6.104767566078997 35.20974867391543 0  -5.759609840271719 35.75398801258908 0  -6.34376394446046 35.4748814539208 0  -5.520585258721445 35.49019433348852 0  -5.175367691087563 36.02179447020333 0  -7.952973396956809 50.51094520762203 0  -7.903382553159192 51.03524241080057 0  -8.476667014597929 50.75541111871081 0  -6.244855184543922 36.52281396789525 0  -6.297964541372767 37.04688783246387 0  -5.712585683821045 36.77604824937557 0  -6.294272707806589 35.99868693803092 0  -5.710418604876133 36.27576565593087 0  -6.069182596350932 25.2850689871646 0  -6.187488173386112 24.88030164794732 0  -5.595251135835362 25.15822729509848 0  -8.057807468110033 25.75412901491459 0  -7.939050357145017 26.15315366313834 0  -8.528977744272781 25.87706847917737 0  -7.028548766503494 34.39277975469449 0  -6.685911666975255 34.93397020506527 0  -6.932805246439314 35.25623665972316 0  -7.275475035431266 34.71524238769496 0  -7.522190282857636 35.03766311042676 0  -7.183493509996604 52.64093126966237 0  -7.518421982613168 52.10033244701047 0  -7.277133577769323 51.77842545393349 0  -6.942229510003258 52.31909881966575 0  -6.70074256865052 51.99733163745044 0  -7.039487976383086 38.64082174513295 0  -6.69550162999943 38.10616967357408 0  -6.939618117581081 37.77937126235822 0  -7.283582972041494 38.31423313607488 0  -7.527886174848016 37.98759139773944 0  -7.000517592067449 23.39290312174112 0  -6.652962717971967 23.93425993896073 0  -6.903337690481306 24.25663333264625 0  -7.250929622998159 23.7154414867607 0  -7.501133579552801 24.03791483727839 0  -7.90721708776859 17.51084424903971 0  -7.857715238811128 18.0319452309435 0  -8.453783920264296 17.75535947466669 0  -7.856189631692372 16.99070161808546 0  -8.453433520471529 17.25545706414252 0  -7.89506771951709 8.511088652478035 0  -7.844966077081451 9.032449034959509 0  -8.447697922985292 8.755546683770588 0  -7.934638892651716 2.425232641676913 0  -7.860479342352416 2.989052509411666 0  -8.467472982945143 2.712648442099544 0  -7.843514648076439 7.990740335981307 0  -8.44736502021224 8.255536551555764 0  -7.904098172514593 49.99071813454725 0  -8.47630466705394 50.25550980234207 0  -6.178021592442229 41.61549108472764 0  -6.270937363446611 42.0902
[...]
<PointData  Scalars="f_29"> 
<DataArray  type="Float64"  Name="f_29"  format="ascii">1.9246157691466345e+02  1.8576330333847170e+02  1.8790654381326581e+02  1.8336173867298010e+02  1.9029125715486768e+02  1.8812497975034785e+02  1.9236233148802845e+02  1.8566847718872179e+02  1.8780595664474851e+02  1.8325628781878493e+02  1.9019806823093697e+02  1.8806820708956940e+02  2.9328129416745315e+02  2.8637993698046205e+02  2.8858332018206443e+02  2.8389367054771606e+02  2.9105029896312760e+02  2.8885206442992478e+02  2.9335473018798490e+02  2.8678399760586319e+02  2.8867807554805290e+02  2.8401813945182585e+02  2.9144544795398400e+02  2.8953694149272349e+02  4.9462265215210226e+02  5.0196984907285054e+02  4.9701526494131394e+02  4.9935553617481759e+02  4.9959659578625377e+02  5.0459415565634180e+02  5.0448517460126658e+02  4.9751836041706980e+02  4.9952390356044174e+02  4.9456339521563081e+02  5.0247330682128910e+02  5.0047136529338474e+02  3.5904443569579036e+02  3.6613664790077053e+02  3.6136392910568833e+02  3.6364981485576675e+02  3.6384625684277830e+02  3.6864326161449554e+02  3.6873897006771415e+02  3.6173534281803592e+02  3.6394676204561875e+02  3.5914914037012829e+02  3.6651673153191553e+02  3.6428711894209101e+02  5.1437485438392048e+02  5.2180878369830634e+02  5.1683381639454205e+02  5.1926826423363252e+02  5.1935730915607428e+02  5.2436565807700663e+02  5.1446530708850366e+02  5.2187850318696337e+02  5.1690703035196793e+02  5.1931311955214528e+02  5.1944252155430922e+02  5.2445328395970296e+02  3.8776001539715651e+02  3.8881237361192694e+02  3.9099474920748401e+02  3.9423400550585313e+02  3.8558244258964777e+02  3.8340447594865782e+02  4.4562456209461226e+02  4.4454743255396608e+02  4.4233903224479701e+02  4.3905674796876366e+02  4.4783682585021722e+02  4.5004614175619037e+02  4.1659150865782618e+02  4.1552224816748333e+02  4.1333747790212021e+02  4.1008461489218945e+02  4.1878100296788580e+02  4.2096823084910142e+02  5.9841783868660507e+01  5.8879757172046517e+01  5.6923534166894328e+01  5.4007516970488801e+01  6.1801797871247672e+01  6.3759022737262747e+01  2.6541716133085339e+02  2.6643410661431864e+02  2.6854251756735113e+02  2.7167290914345273e+02  2.6331523731997078e+02  2.6121382137061062e+02  3.4056589371924261e+01  3.4961520679111530e+01  3.6939059741670505e+01  3.9822779096248787e+01  3.2083027384562335e+01  3.0109555604143495e+01  8.5872545798462241e+01  8.6788990426324020e+01  8.8807007553125800e+01  9.1742307472289284e+01  8.3857660943372608e+01  8.1844814023912278e+01  1.1212220768941640e+02  1.1114164060013726e+02  1.0915148610762496e+02  1.0618297447216626e+02  1.1411559089613142e+02  1.1610668467561371e+02  1.3859999552358300e+02  1.3761497224263647e+02  1.3560245296792797e+02  1.3260808672989481e+02  1.4061627099169374e+02  1.4262954386976975e+02  1.6534532680047428e+02  1.6629994251135594e+02  1.6836943715452796e+02  1.7139697052038289e+02  1.6328237074923496e+02  1.6121757332004495e+02  2.3783848467115013e+02  2.3881388701882636e+02  2.4092682525469729e+02  2.4401748742163252e+02  2.3573144965766002e+02  2.3362186507019624e+02  1.6614717328831179e+02  1.6368300119519503e+02  1.5878572343178925e+02  1.6124161656339925e+02  1.5636882362225774e+02  2.3866044665168863e+02  2.3614117547061156e+02  2.3113384915392385e+02  2.3364518732104506e+02  2.2865589295392664e+02  1.3771045839387435e+02  1.4016931054111558e+02  1.4500716162415489e+02  1.4254379143895079e+02  1.4736233972351610e+02  2.6630375534847150e+02  2.6376052720300532e+02  2.5874211671930846e+02  2.6125398087244162e+02  2.5628564173350338e+02  1.1123278370221882e+02  1.1366900653347633e+02  1.1845865592233650e+02  1.1602354805502353e+02  1.2080044457120535e+02  8.6634814604515824e+01  8.4240364874999329e+01  7.9476677877462208e+01  8.1863597742219838e+01  7.7124784327433616e+01  3.4814251900846685e+01  3.2462064801867051e+01  2.7783217358525839e+01  3.0133183825984791e+01  2.5481624212056825e+01  5.8969326943784210e+01  6.1363515200822967e+01  6.6071006061195419e+01  6.3672890284233389e+01  6.8360455824745941e+01  4.1562801301486809e+02  4.1829739045316472e+02  4.2355145254550331e+02  4.2088281754724136e+02  4.2612423200991304e+02  4.4465545002078335e+02  4.4735009199021232e+02  4.5265516460733767e+02  4.4995605071099317e+02  4.5524277098343026e+02  3.8867950989334520e+02  3.8604352933381455e+02  3.8084284052527568e+02  3.8344759251361148e+02  3.7830081229508255e+02  2.0973052261219516e+02  2.1216647159280635e+02  2.1711083757645306e+02  2.1460094366662977e+02  2.1464941093298086e+02  2.1961404173117680e+02  4.7571517155626719e+02  4.7309736942190113e+02  4.6778303185822926e+02  4.7047904521158313e+02  4.7039241895859959e+02  4.6510150771352465e+02  3.4099055446837014e+02  3.3846787587881926e+02  3.3339015134954246e+02  3.3594353353638303e+02  3.3587646540292894e+02  3.3085774199413908e+02  3.1118963623617827e+02  3.1370370922394460e+02  3.1880155334921307e+02  3.1621678382067165e+02  3.1625795038889311e+02  3.2137147732967429e+02  4.6021113287961225e+02  4.6534504393789410e+02  4.6264143322277613e+02  3.2609526946354111e+02  3.3101810030620067e+02  3.2846940931306534e+02  3.2115022206456990e+02  3.2374700826904240e+02  2.2198319013981754e+02  2.1828885433888146e+02  2.2081750348281849e+02  2.2634499364311904e+02  2.2998313890582170e+02  2.2748882894910597e+02  3.0613063492260721e+02  3.1116693496183723e+02  3.1420541794067736e+02  3.0916239764879322e+02  3.1219589360213683e+02  4.8105782946022572e+02  4.7576367499296617e+02  4.7258557159206947e+02  4.7787419502762197e+02  4.7469375243978664e+02  3.4608686453548853e+02  3.4100643195755907e+02  3.3793922321568766e+02  3.4301258500108270e+02  3.3994005976708240e+02  2.0482159438389667e+02  2.0970420369699613e+02  2.1264742580607623e+02  2.0775840813167494e+02  2.1069649717331208e+02  1.5190209473015250e+02  1.5655951209383318e+02  1.5411991966577912e+02  1.4726081251104847e+02  1.4964665706354489e+02  7.2782358251908533e+01  7.7313760268757505e+01  7.4937715986976457e+01  2.0493986547700818e+01  2.5301865871407724e+01  2.2974811749430522e+01  6.8265946312758473e+01  7.0585469112003636e+01  4.5512359232174367e+02  4.5774074675387641e+02  3.7437312493078491e+02  3.7888643862839706e+02  3.7633058101966282e+02  2.1676094356944142e+02  2.1568254239000308e+02  2.1372622473517995e+02  4.6684912584866754e+02  4.6866388642537174e+02  4.7077027772007045e+02  3.3243698521126578e+02  3.3419121442369578e+02  3.3618544813508868e+02  3.1970837674958648e+02  3.1796423372349159e+02  3.1594894460838509e+02  2.5383659249414202e+02  2.5752329976981417e+02  2.5505550223763510e+02  3.9459421685436314e+02  3.8898791238511194e+02  3.9441577523543714e+02  4.3868882418973908e+02  4.4436213960287199e+02  4.3887365212270578e+02  4.0971484711189220e+02  4.1533736864971627e+02  4.0990061025607400e+02  5.3674687100170679e+01  5.8712112830289108e+01  5.3842473830101987e+01  4.0101373834056453e+01  3.5101893255831591e+01  3.9963572704571575e+01  2.7209232730487901e+02  2.6664068098736999e+02  2.7188485244886238e+02  9.2021941978582547e+01  8.6930079859110862e+01  9.1883511521555064e+01  1.0584284118291531e+02  1.1097059151298711e+02  1.0601422750481241e+02  1.3226966736222650e+02  1.3744456347224889e+02  1.3243977637138056e+02  1.7176418450071321e+02  1.6648536658858274e+02  1.7158330107475231e+02  2.4432132400154163e+02  2.3896667034093312e+02  2.4417103638191969e+02  2.3065881088230489e+02  2.3214012546997790e+02  2.3424724996956968e+02  1.5795766738116086e+02  1.5958763769666737e+02  1.6164985952797582e+02  1.4584865527368260e+02  1.4424003087081661e+02  1.4222279616369067e+02  2.5810041330281501e+02  2.5965863283010242e+02  2.6175633811160918e+02  1.1919919494217640e+02  1.1765339218685708e+02  1.1565912344483269e+02  7.8742371375671283e+01  8.0293915792847400e+01  8.2305350066877210e+01  2.8183111287490981e+01  2.9146903390739428e+01  3.1118677975692083e+01  6.6894418418219843e+01  6.5327603307732801e+01  6.3366170248479634e+01  3.8016909201680227e+02  3.8178764892166100e+02  3.8396265009166433e+02  4.5357229535639027e+02  4.5181018002292507e+02  4.4959675774230169e+02  4.2435362358657812e+02  4.2266133826286472e+02  4.2047061579468942e+02  3.6933086949132536e+02  3.7155529460508535e+02  5.0950994685578047e+02  5.0443422105846304e+02  5.0702762208330194e+02  5.0946076891038149e+02  5.0496534709026719e+02  5.0697041721684360e+02  5.1436368329593188e+02  5.1191741792056155e+02  5.1441193043043518e+02  5.1198811657203424e+02  1.1991638142144538e+01  1.7524750238702619e+01  1.3273907921770295e+01  1.4553745691568750e+01  1.6239028225347536e+01  5.4663652294876556e+02  5.4666749864771759e+02  5.5049256561108234e+02  5.4669655087672481e+02  5.5046429310831570e+02  5.5429490897216544e+02  5.4663754699680248e+02  5.4666982852446063e+02  5.5049411563989861e+02  5.5046520613456335e+02  5.5429490897216544e+02  5.3115462584784052e+02  5.2520846342374978e+02  5.2775119530136828e+02  5.3118803068245597e+02  5.2525213540117147e+02  5.2781031352312687e+02  6.5551902757195037e+00  6.5827263750939746e+00  3.3022414925411496e+00  6.6077454491104479e+00  3.2769893107028039e+00  0.0000000000000000e+00  1.9544700037890723e+02  1.9210029353804885e+02  1.9613136610695446e+02  1.9141590451716772e+02  1.9476690253968252e+02  2.9645636476085423e+02  2.9300371083731852e+02  2.9715516402939789e+02  2.9230504428886513e+02  2.9576137939313543e+02  3.5589042222953543e+02  3.5942745635555525e+02  3.5520693405103924e+02  3.6010830982005518e+02  3.5656810015379750e+02  4.9200922807048073e+02  4.9568496829026645e+02  4.9427348985193061e+02  4.9060808105204660e+02  4.8920001127476121e+02  6.4784472351831734e+00  6.5442929536412020e+00  3.3029332948120924e+00  3.2370517941340196e+00  0.0000000000000000e+00  1.8086743085013401e+02  1.8449817888926233e+02  1.8212924625243173e+02  2.8136227144367643e+02  2.8510652853223377e+02  2.8263519504605239e+02  3.7119332686248072e+02  3.6742057984864061e+02  3.6991150554793148e+02  5.0442364571634789e+02  5.0950602992985989e+02  5.0949447223165134e+02  5.1437934876201984e+02  5.0948027134151141e+02  5.1440119089075336e+02  5.0498133633808754e+02  3.6886967494491648e+02  3.7391251424044663e+02  3.7345201792159833e+02  1.8624068064474525e+02  1.8715392767303132e+02  1.9118688556231163e+02  1.8718232545562347e+02  1.9212645725549802e+02  2.8633134772990809e+02  2.8759119895054283e+02  2.9174287673179907e+02  2.8793470594664149e+02  2.9334361534510555e+02  4.9770235552126024e+02  4.9853077688619845e+02  4.9344958380286971e+02  3.6563579597741767e+02  3.6496210855916081e+02  3.6954449232630230e+02  3.5974173045026788e+02  3.6041865582142043e+02  3.6464445790909321e+02  5.1840531121912466e+02  5.1886037351100981e+02  5.1394866657617945e+02  5.1883805192633747e+02  5.2318218504966887e+02  5.2274912830768938e+02  5.2709290107319123e+02  4.9908750646828105e+02  5.0359638547365921e+02  5.2320297875301446e+02  1.9600174115478464e+02  1.9206682475464515e+02  1.9606694377025138e+02  2.9702419773551685e+02  2.9328197769157941e+02  2.9709024651972493e+02  3.5539343222063121e+02  3.5984012029800596e+02  3.5530546844670158e+02  1.5493072518305249e+02  1.4887270643013056e+02  7.5762990110038942e+01  2.4338640778363605e+01  6.9835997342810316e+01  4.5688923703092814e+02  4.9435019346500701e+02  4.9010252667159040e+02  4.9099893692781154e+02  4.9573271878782361e+02  1.5193057801494712e+02  1.4888843965450775e+02  1.5191768274126187e+02  1.5494327965042237e+02  7.2813434981565919e+01  6.9852821409865754e+01  7.2799260012341733e+01  2.1239572430471554e+01  2.4711213671143227e+01  2.0868624886160493e+01  7.5777049444010757e+01  4.6023869381464050e+02  4.5690412871420676e+02  4.6022624630104212e+02  1.7789203192349282e+02  1.8355806455307621e+02  1.8206590122642532e+02  1.7938266052312724e+02  2.7836243935435442e+02  2.8384787060991061e+02  2.8234614693128469e+02  2.7986425025386387e+02  3.6841197551176799e+02  3.7232140211791574e+02  3.7726811981449890e+02  3.7681065466911593e+02  5.4045356994805206e+02  5.3390843444353868e+02  5.3855823923745356e+02  5.3666371593435872e+02  5.3580305073565307e+02  5.4045506615752254e+02  5.3392006335361214e+02  5.3856039045722298e+02  5.3581664930245552e+02  5.2913906075086049e+02  5.2912135520011520e+02  1.2389714028428092e+02  1.1999904980515446e+02  1.2236354209711561e+02  4.2951062617660750e+02  4.2523626377925393e+02  4.2783174039251492e+02  4.6353076602788201e+02  3.2289620344620232e+02  3.2926330416753325e+02  4.6354316406915422e+02  3.2605934916248390e+02  3.2288382843526585e+02  3.2607541873675655e+02  3.2924827466032752e+02  2.2413428882393848e+02  2.2850205718064845e+02  2.2739651387591869e+02  2.2523918588370032e+02  2.6544225973328804e+02  2.6083183892788361e+02  2.6588061990473443e+02  1.3851386474043221e+02  1.3811346290616567e+02  1.4294115327163232e+02  1.6528155898669712e+02  1.6081762186406124e+02  1.6571567837626006e+02  2.3777744880615501e+02  2.3321137158021725e+02  2.3822034973849100e+02  3.3987548084586557e+01  2.9726973948229773e+01  3.4402316697282195e+01  5.9750146176071041e+01  5.9360651242462815e+01  6.4059027442939382e+01  8.5789985782881331e+01  8.1450323591704716e+01  8.6213613809931545e+01  1.1202845885740990e+02  1.1163171791197760e+02  1.1641600426169296e+02  4.1650492667106573e+02  4.1606767199818802e+02  4.2131579758424209e+02  4.4553884572371754e+02  4.4509854447668630e+02  4.5039364263309506e+02  3.8778582125606653e+02  3.8301129781675195e+02  3.8824041627715866e+02  1.8319384148946256e+02  1.7902195626729358e+02  1.8014572406298959e+02  2.8357934874064296e+02  2.7959558197614029e+02  2.8082423857166384e+02  2.5062284274449647e+02  2.4765160447449901e+02  2.5098523256317890e+02  2.4728980038881312e+02  2.5026099389472535e+02  4.0182671339847468e+02  3.9837838936080038e+02  4.0215614024475281e+02  3.9804332055587338e+02  4.0150560023044966e+02  4.0248800676792507e+02  4.0593407958232240e+02  4.0626782911311665e+02  4.0282122997633718e+02  2.5596602431453624e+02  2.5240874125221009e+02  2.5454255886653681e+02  1.8410602892578362e+02  2.8518027329524119e+02  1.7895298179440605e+01  1.9356864377632616e+02  2.9452567921852699e+02  4.9331728057437795e+02  3.5780416192909979e+02  1.8170719842852802e+02  2.8242984132623866e+02  2.1936839772074649e+02  2.2044699033534616e+02  2.2305852637108569e+02  3.0531893195873613e+02  3.1075646508211298e+02  3.0572605817987795e+02  4.8190274378519905e+02  4.7618560135214648e+02  4.8148321510186008e+02  3.4682389405759312e+02  3.4137266907375835e+02  3.4645784786749482e+02  2.0414341932358531e+02  2.0936134328637641e+02  2.0448390632706929e+02  9.8930675147366472e+01  1.0239588318960433e+02  9.8951646415667710e+01  1.0237508868023269e+02  9.8909427005981215e+01  9.5485574932975467e+01  9.5464141856244382e+01  4.6885130828293413e+01  5.0288230375486016e+01  4.6904099504389201e+01  5.0269056959257362e+01  4.6865904331548577e+01  4.3501101412202658e+01  4.3482153412463752e+01  5.3187746737980945e+02  2.1049503513428328e+02  2.1012027431256752e+02  2.1502752968332348e+02  4.7486825378329996e+02  4.6997765495184541e+02  4.7529206975120093e+02  3.4020529636446099e+02  3.3549475664325854e+02  3.4060334361315574e+02  3.1197554684346113e+02  3.1158947643379679e+02  3.1664934441130748e+02  2.5658224986957549e+02  2.5378257059013794e+02  2.5342081842236811e+02  4.0786277506262815e+02  4.0500962719601256e+02  4.0468060978792903e+02  3.9645476013938406e+02  3.9930455592703720e+02  3.9963676958751745e+02  1.2596589493577794e+02  1.2154713511279303e+02  1.2258143197340767e+02  1.2493340806605705e+02  4.3177337676125148e+02  4.2693117001840159e+02  4.2806216716180649e+02  4.3064381047475649e+02  0.0000000000000000e+00  0.0000000000000000e+00  3.3033211480623290e+00  5.5429490897216544e+02  5.5429490897216544e+02  5.5049454665878113e+02  5.5429490897216544e+02  0.0000000000000000e+00  1.9423959508014585e+02  2.9519949748080802e+02  4.9278340588541494e+02  3.5728498679221411e+02  5.4354347137166906e+02  5.4357384528005844e+02  5.4354467285624389e+02  5.4357464648496102e+02  2.5902805866806155e+01  2.1931103867532372e+01  2.5737517147817343e+01  2.5583977768728591e+01  2.2102894411738717e+01  1.8292935251131393e+01  2.0007098367843119e+02  2.0013738135767818e+02  3.0117075152922973e+02  3.0123676838698520e+02  3.5110791576408053e+02  3.5101431676938540e+02  4.8644768028323023e+02  4.8555062244046451e+02  1.7595200968673856e+02  1.7482662383174534e+02  2.7645611898201417e+02  2.7522898686240092e+02  1.6960092599363431e+01  1.7645859837608437e+01  2.1262670931151110e+01  9.2712037173940534e+00  9.3006797661631762e+00  1.2808295127530360e+02  1.2911514591483777e+02  4.3409896283133656e+02  4.3522850512770674e+02  1.1578984241573529e+01  9.0267482820898017e+00  9.0922834852575551e+00  1.2678052767784618e+02  1.3097105776792759e+02  1.2968899244094649e+02  4.3267370515970140e+02  4.3726711934849521e+02  4.3586079746641298e+02  2.0219522294786859e+02  1.9916141892431699e+02  1.9848006381670891e+02  3.0353781740461307e+02  3.0034476583843428e+02  2.9964829917931161e+02  3.4867791850245067e+02  3.5194082564492368e+02  3.5262246968880828e+02  4.8409233608393725e+02  4.8664613021744913e+02  4.8804473386874344e+02  1.7719321848126330e+02  1.7300536384157522e+02  1.7422724610959315e+02  2.7776986289983279e+02  2.7340836121141075e+02  2.7471301521439091e+02  1.6591820374671222e+01  1.2347183395280535e+01  1.2698303844587262e+01  4.3591005858773144e+02  4.3087253534069788e+02  4.2880379027109961e+02  4.2583836386146874e+02  4.3384218487646939e+02  7.2841779465739975e+01  7.5186204522057679e+01  7.7558968878218465e+01  7.0470791793010164e+01  6.8130850661918700e+01  1.5631379162492229e+02  1.5171214162904960e+02  1.4952176734353554e+02  1.4711733227815071e+02  1.5412236896768007e+02  9.4642733580371257e+01  9.8953371564317308e+01  1.0111032842104190e+02  1.0327280991202817e+02  9.6796817987359518e+01  4.2668414094210391e+01  4.6904299490592230e+01  4.9023853891914179e+01  5.1147975193089323e+01  4.4785958535961058e+01  1.2974053334998527e+02  1.2326013677749329e+02  1.2785394147736548e+02  1.2514778929672032e+02  1.2055818520682385e+02  1.7320658382559793e+02  1.7555114799934756e+02  1.7703415321821865e+02  2.7379523190345441e+02  2.7607957994311113e+02  2.7757676394117033e+02  3.7926756496350396e+02  3.7635818991303546e+02  3.7523104486329038e+02  2.1867516956237714e+02  2.2140506017506064e+02  2.2250733871333114e+02  2.4662981996160991e+02  2.4880870925096718e+02  2.5023257916258564e+02  2.2555479646520411e+02  2.2662791844732914e+02  2.2912119588798322e+02  3.2114656599470942e+02  3.2857036851355673e+02  3.2360221438960303e+02  3.2611313763325137e+02  3.3108416616374910e+02  4.6537162761769082e+02  4.6016093922517683e+02  4.5759638757792823e+02  4.5495859651298235e+02  4.6280573566396146e+02  1.6421133564315664e+01  1.9768849529512128e+01  1.6895439289417322e+02  1.7019386417465307e+02  2.4149031207050470e+02  2.4563274906606614e+02  2.4280024201220564e+02  2.4693479580735635e+02  8.9327781311004671e+01  9.3263494968614054e+01  9.0567344413832444e+01  9.4491110941459468e+01  3.9163753945926220e+02  3.9599547625238807e+02  3.9301511622070478e+02  3.9736557698889226e+02  1.0853753866538864e+02  1.0455218822730959e+02  1.0724504368514334e+02  1.0327640641973764e+02  4.4167240641881170e+02  4.4024740129801290e+02  4.1267120869436434e+02  4.0830340869468483e+02  4.1125812262805130e+02  4.0691125251592939e+02  5.6321935563291213e+01  5.2407771678302609e+01  5.5052672445449524e+01  5.1155916803945502e+01  3.7457144534165558e+01  4.1322454964813367e+01  3.8676117981718832e+01  4.2528540639014992e+01  1.3499024128905702e+02  1.3368894659270779e+02  2.6919836703480365e+02  2.7048963806354260e+02  3.0690623027736177e+02  3.0399504880982533e+02  3.0268477795266801e+02  3.0825233917653281e+02  3.4530954995056152e+02  3.4825879011177335e+02  3.4967445850199437e+02  3.4390496914854356e+02  4.8019453763845195e+02  4.8329858306150379e+02  4.8466956052499154e+02  4.7880741030685942e