<?xml version="1.0"?>
<VTKFile type="UnstructuredGrid"  version="0.1"  >
<UnstructuredGrid>
<Piece  NumberOfPoints="2690" NumberOfCells="4864">
<Points>
<DataArray  type="Float64"  NumberOfComponents="3"  format="ascii">-5.072900393457483 22.01594498534945 0  -5.663115961055904 21.27859083539881 0  -5.071465600921646 21.51724924600511 0  -5.069761035460399 21.01601983628346 0  -5.664560465785797 21.77888481941513 0  -6.256208723503095 21.5392533339861 0  -9 21.99999999996945 0  -8.407519689164294 21.26583201932293 0  -9 21.49999999997139 0  -9 20.99999999997333 0  -8.407776013603202 21.76581347663313 0  -7.815311405691379 21.53158494045336 0  -9 32.9999999999446 0  -8.413125325666497 32.26577986955792 0  -9 32.49999999994358 0  -9 31.99999999994255 0  -8.413381337477169 32.76578483991553 0  -7.826520481384778 32.53153148557772 0  -5.110087400805095 33.01723103728383 0  -5.613554717992876 32.31340916073886 0  -5.108591911768713 32.5195227739206 0  -5.106771073750952 32.01667244148381 0  -5.615050607236958 32.81385195559774 0  -6.120000205829276 32.60799927087895 0  -5.182251298025265 54.01641461431334 0  -5.759963871771876 54.7531508597332 0  -5.758537232751282 54.25383802938096 0  -6.334596141612845 54.48885102061808 0  -5.18393429920406 54.51764087509681 0  -5.185407971357521 55.01658126640068 0  -9 54.99999999998974 0  -8.49418851622176 54.29892517626261 0  -9 54.49999999998872 0  -9 53.99999999998769 0  -8.494415075879585 54.79885613791181 0  -7.988650752462071 54.59773468077926 0  -9 39.99999999995897 0  -8.417474146596692 40.7407267474062 0  -8.41721803678398 40.24073044739229 0  -7.83468087004437 40.48141276810681 0  -9 40.49999999996 0  -9 40.99999999996102 0  -5.137309120056798 41.01523228188622 0  -5.692005225257946 40.28422279772489 0  -5.13582557233767 40.51771165512796 0  -5.134148328457929 40.01715587300282 0  -5.693451533260665 40.78396467634325 0  -6.249629759704574 40.54990468406351 0  -9 55.99999999999179 0  -8.449328853881545 56.74631284472334 0  -8.449105092281293 56.24626913494686 0  -7.898444402304682 56.49253771644292 0  -9 56.49999999999282 0  -9 56.99999999999384 0  -5.189150891424202 56.01566934861606 0  -5.742151937549593 56.75905639357373 0  -5.740747877653898 56.25898888036738 0  -6.292067052450922 56.50032560552419 0  -5.19093820353786 56.51816902094973 0  -5.192407602083767 57.01663335700962 0  -7.493865691017374 43.00903136075824 0  -6.676812577331815 43.12228009143585 0  -7.264476491768463 43.3479015052304 0  -7.035219159957556 43.68678378489703 0  -6.906066556616286 42.78331075265457 0  -6.318039388939632 42.55759596495803 0  -6.662749866135486 49.01706275088006 0  -7.475607092055741 48.90285513588891 0  -6.890791155989008 48.67807266881074 0  -7.118984795872367 48.339030589262 0  -7.247427564557414 49.24181176622844 0  -7.831860203798549 49.46668279407385 0  -6.656536535819349 46.01602414799591 0  -7.471556906131402 45.9021825594661 0  -6.885210049721759 45.67684470429445 0  -7.114026126602427 45.33774798563145 0  -7.242750028672649 46.241266844547 0  -7.828732818624387 46.46644966570695 0  -6.576377629808116 7.016580826219617 0  -7.41928337078017 6.902623400169991 0  -6.812900400958163 6.677581815824371 0  -7.049566492344724 6.338586523368386 0  -7.182626616255057 7.241615839326765 0  -7.78864652709773 7.466639219564528 0  -7.476602683411538 30.00892954333541 0  -6.650176519202936 30.12205249552305 0  -7.244586106355878 30.34755399313086 0  -7.012705573721264 30.68612255030773 0  -6.882059502573768 29.78337455759448 0  -6.287281535202947 29.55790921533166 0  -6.570498725494539 4.015783637241029 0  -7.415754600971826 4.118469273647835 0  -6.808793134378548 4.351715724051487 0  -7.046969684932013 4.687596068212115 0  -7.177586031371159 3.782557071767707 0  -7.784870689916266 3.54943364774347 0  -6.58240696764587 10.01672144956059 0  -7.423492333447019 10.11909639185736 0  -6.819557756106134 10.35244466011381 0  -7.056584691610569 10.68816874465379 0  -7.186454094991224 9.783388988157146 0  -7.790736870188839 9.550036404098103 0  -6.588452652812158 13.01687170385321 0  -7.427148622450989 12.90285756849353 0  -6.823785111036942 12.67787818510625 0  -7.05925997643522 12.33888977141484 0  -7.191677571597464 13.24187008250232 0  -7.794679517544247 13.46682179197191 0  -6.594536119818583 16.01712978269369 0  -7.431124971694559 15.90293374362699 0  -6.82927106275716 15.67815541265764 0  -7.064152368223837 15.33913926078518 0  -7.196256151497875 16.24188819947904 0  -7.797739644481419 16.46674310369567 0  -6.600790305112083 19.01534248333128 0  -7.43549759561098 19.11801741216976 0  -6.836197312114077 19.35078875497624 0  -7.071457166224266 19.68633208753004 0  -7.200224845786917 18.78242396327551 0  -7.799908140242778 18.54946130477872 0  -6.617272207620136 27.01476965590831 0  -7.446248222543839 27.11765901549493 0  -6.851040678023106 27.35054029779568 0  -7.084678616000157 27.68633425238783 0  -7.21260759765803 26.78177377373045 0  -7.808172167384309 26.54891238773355 0  -8.28066738142137 19.09842068022135 0  -8.040346102785087 18.82391569680883 0  -8.399811590805562 18.27477537376343 0  -8.640160686531274 18.54928053919839 0  -9 17.99999999998495 0  -8.285612633621657 27.09824026759854 0  -8.046948569041165 26.82357837484527 0  -8.403947791356151 26.27444136591931 0  -8.642638527068002 26.54911708197446 0  -9 25.99999999995395 0  -8.278676164016492 15.91118133641208 0  -8.038150631086973 16.1889713105646 0  -8.3990092108035 16.73333553854938 0  -8.639506933895809 16.45556448946555 0  -9 16.99999999998883 0  -5.812999825373174 30.11341494587899 0  -6.050080012330872 29.8356440362875 0  -5.69214103423572 29.29069673660386 0  -5.455046663094619 29.5692203085324 0  -5.096352747689029 29.01593457638239 0  -8.276845649002267 12.91117436849656 0  -8.03570634494446 13.18899473629402 0  -8.397475548538445 13.73341786626929 0  -8.638588810239328 13.45559493053686 0  -9 13.99999999999401 0  -8.275147749481462 10.09892634780136 0  -8.032997214078479 9.824482018998919 0  -8.395231660854767 9.275015613995974 0  -8.6374098074138 9.549460009778432 0  -9 8.99999999999857 0  -8.271602086314379 4.098629475058032 0  -8.02828591819819 3.824044823598243 0  -8.392325520688592 3.274693694365612 0  -8.635656288073914 3.549281669472294 0  -9 2.999999999998668 0  -8.273231456138836 6.911057199042632 0  -8.030883019086779 7.188845048850364 0  -8.394458441614759 7.733324320953893 0  -8.636780185837075 7.455538322209131 0  -9 7.999999999999485 0  -8.297265052299057 45.91085402900179 0  -8.062942242488791 46.18863310709851 0  -8.414504597616959 46.73325421127991 0  -8.648800048970561 46.45547680446189 0  -9 46.99999999997333 0  -8.299128469695447 48.9111361125266 0  -8.065435396435198 49.18891860377939 0  -8.416072943736429 49.73330380194871 0  -8.649737585041844 49.45554464740968 0  -9 49.99999999997949 0  -5.849154196814359 43.11361110541214 0  -6.083534861399885 42.83559941828253 0  -5.729649541608677 42.29016246745329 0  -5.49526114787141 42.56901578918854 0  -5.140584071583085 42.01528013165602 0  -5.791322136242632 23.93602260512953 0  -6.035809720856648 24.20203274771054 0  -5.681621878735291 24.74574570087514 0  -6.2801759439082 24.46809654641255 0  -5.43722968203738 24.48049131636854 0  -5.083134762859067 25.01583294832246 0  -8.305692766962705 52.08814267062115 0  -8.067601160340446 51.82203446282897 0  -8.414548681468366 51.2780303994314 0  -7.829392513271639 51.55597156771911 0  -8.652673063928244 51.54413767425146 0  -9 50.99999999998153 0  -5.830593845876399 38.10316285935171 0  -6.070718582218197 37.83359726494836 0  -5.717573702618705 37.29344771961384 0  -6.310961855568682 37.56408246565759 0  -5.477432238876427 37.56392501077228 0  -5.123477372451198 37.01456938179742 0  -5.821773398641519 34.93586969966815 0  -6.063959093707242 35.20176516302543 0  -5.713166075593235 35.7452776132598 0  -6.306023777315742 35.4677113991294 0  -5.471065213626704 35.48025235203691 0  -5.120391179051194 36.01509280606562 0  -7.931147226305574 50.50759065429342 0  -7.880244139766003 51.03180143199079 0  -8.465694908598975 50.75375313745896 0  -6.204469948420509 36.51574147551543 0  -6.257733615117734 37.03981308386407 0  -5.664056031227203 36.76797579473415 0  -6.255223952246498 35.99162013443247 0  -5.662593730611746 36.26779314211064 0  -6.040269240275498 25.27727602234068 0  -6.160188723734358 24.87271974265559 0  -5.561826838159471 25.14946934323871 0  -8.04833474958626 25.75154567985952 0  -7.928212381180504 26.15022846054154 0  -8.524218455245935 25.87577550417954 0  -7.001474716735112 34.38753443132189 0  -6.653582275649668 34.9277156716828 0  -6.903634711168158 35.25069402835121 0  -7.251548165808506 34.71064573791033 0  -7.501478192850413 35.03372852256032 0  -7.143718994238137 52.63570232970283 0  -7.486383007607688 52.09592295191319 0  -7.240156458445308 51.7731922729188 0  -6.897509410092444 52.31302133196173 0  -6.651151189386654 51.99038592309861 0  -7.008920111898423 38.63562821137747 0  -6.660108014475898 38.09994763499113 0  -6.908270439591866 37.7738494269135 0  -7.257066222456471 38.30967163804912 0  -7.505354508576933 37.98367995569985 0  -6.982338425791185 23.38761945125538 0  -6.63109284458162 23.92791535707124 0  -6.883525612134838 24.25096646591871 0  -7.23479433814638 23.71078287954797 0  -7.487108326451093 24.03390154624552 0  -7.900016304007611 17.50747416847231 0  -7.849937371796615 18.02849168452044 0  -8.450127354208204 17.75369372872476 0  -7.848899867433117 16.98711735363748 0  -8.449889128640148 17.25376114221117 0  -7.891660373119086 8.507645668379114 0  -7.841177251780187 9.02884256865172 0  -8.445943944769919 8.753824510452025 0  -7.933607556558671 2.422240104932837 0  -7.859193452514364 2.98581674590828 0  -8.466910932672414 2.711142378610567 0  -7.840175919110704 7.987146624241528 0  -8.445714259695709 8.253817462072373 0  -7.88152682331885 49.98714619301259 0  -8.465451361873631 50.25382043607407 0  -6.130324888958107 41.60855550615292 0  -6.224222065365094 42.08314608172661 
[...]
<PointData  Scalars="f_29"> 
<DataArray  type="Float64"  Name="f_29"  format="ascii">4.0226379102161644e+02  3.8839388127185657e+02  3.9283623130810412e+02  3.8342623164892922e+02  3.9776520959733313e+02  3.9329345903118127e+02  4.0213030975866553e+02  3.8826450371282476e+02  3.9270074397659027e+02  3.8328451476269527e+02  3.9763744748164845e+02  3.9321594342334396e+02  6.0987095155926613e+02  5.9571320587511173e+02  6.0024121615287675e+02  5.9062758396076538e+02  6.0528440213607928e+02  6.0076718760178630e+02  6.0995746237228389e+02  5.9648766357854629e+02  6.0037375128550832e+02  5.9081709918544948e+02  6.0603923425134519e+02  6.0213567873136458e+02  1.0186139685108475e+03  1.0334026120065425e+03  1.0234297229074617e+03  1.0281485206143816e+03  1.0286264022213218e+03  1.0386838714676080e+03  1.0385204067352190e+03  1.0244953883272251e+03  1.0285395990929660e+03  1.0185586626894996e+03  1.0344625790356206e+03  1.0304255502234048e+03  7.4417264162161348e+02  7.5859974250116841e+02  7.4888401500769976e+02  7.5352491186147597e+02  7.5394904112408994e+02  7.6371423039702654e+02  7.6384215297834021e+02  7.4958786762570560e+02  7.5409097713565836e+02  7.4432677014383921e+02  7.5931591184635147e+02  7.5478789007118712e+02  1.0584016592198338e+03  1.0733331402183933e+03  1.0633347962266478e+03  1.0682163574039541e+03  1.0684151338232159e+03  1.0784819927059687e+03  1.0585319531280245e+03  1.0734317378328813e+03  1.0634390074848100e+03  1.0682800183202942e+03  1.0685357206247556e+03  1.0786058756633756e+03  8.0255385544333092e+02  8.0468106521706113e+02  8.0912035838324732e+02  8.1569352777745132e+02  7.9812102180194051e+02  7.9368905017296800e+02  9.1981677954047757e+02  9.1765512763374852e+02  9.1317869624556636e+02  9.0654512244214573e+02  9.2429854594288850e+02  9.2877520086565721e+02  8.6104648868140555e+02  8.5889337023300516e+02  8.5445234395818579e+02  8.4785943162617343e+02  8.6549390500591664e+02  8.6993825383701108e+02  1.2600865432364247e+02  1.2400642036124701e+02  1.1988744991408160e+02  1.1376926125381563e+02  1.3013300968054608e+02  1.3425277625601896e+02  5.5268958180984475e+02  5.5476772881034537e+02  5.5910282480254045e+02  5.6552382861916635e+02  5.4836413433080861e+02  5.4403946674848930e+02  7.1809955845986764e+01  7.3729035436079400e+01  7.7879956272687849e+01  8.3951959053916141e+01  6.7664373180513863e+01  6.3519610709275256e+01  1.8055175582120978e+02  1.8248900010291035e+02  1.8669557792581935e+02  1.9284066668284879e+02  1.7634956449348357e+02  1.7215115751448141e+02  2.3540494978056179e+02  2.3337754460123404e+02  2.2921016809134517e+02  2.2301836486506480e+02  2.3957678484686352e+02  2.4374500483043695e+02  2.9057918394543367e+02  2.8854663860287206e+02  2.8434631613989569e+02  2.7811785548320165e+02  2.9478464466246169e+02  2.9898490606695066e+02  3.4613565522636259e+02  3.4812725296058005e+02  3.5240701347421293e+02  3.5868375707900412e+02  3.4186535998598282e+02  3.3759320275733546e+02  4.9596267047221755e+02  4.9798271691360583e+02  5.0232343921195576e+02  5.0868793363173558e+02  4.9163009720876619e+02  4.8729395422996350e+02  3.4782767605395151e+02  3.4271194566009262e+02  3.3256077697245780e+02  3.3766199882402401e+02  3.2755961909129252e+02  4.9768287148956472e+02  4.9248861716982401e+02  4.8217942388165227e+02  4.8735961262179421e+02  4.7708581391524194e+02  2.8876523196127579e+02  2.9387379043559855e+02  3.0394313508532383e+02  2.9882747719933025e+02  3.0885264028387786e+02  5.5449789436366484e+02  5.4927164316631570e+02  5.3894901352855095e+02  5.4412769084925537e+02  5.3388779635679441e+02  2.3358952657609950e+02  2.3866595146992739e+02  2.4866634637777901e+02  2.4359431380387397e+02  2.5356566162674588e+02  1.8218863878227540e+02  1.7717112545921583e+02  1.6720875553892503e+02  1.7221265430020568e+02  1.6229928292071625e+02  7.3437449484726983e+01  6.8478913978786863e+01  5.8632375299026123e+01  6.3588357827406625e+01  5.3795283018278667e+01  1.2421454914291284e+02  1.2923251213025267e+02  1.3911760414809800e+02  1.3409364780087620e+02  1.4393402044252548e+02  8.5912640299905763e+02  8.6453094390419642e+02  8.7518546234726068e+02  8.6978480754990289e+02  8.8041031818208342e+02  9.1789190711617778e+02  9.2333224132549299e+02  9.3405962571950317e+02  9.2861221890610523e+02  9.3929670812325151e+02  8.0440876847597076e+02  7.9905174046018533e+02  7.8847425381596258e+02  7.9378310024258860e+02  7.8329763729996728e+02  4.3798930273858349e+02  4.4301584055220945e+02  4.5320460550714233e+02  4.4804064255345691e+02  4.4814448192186148e+02  4.5835344449262544e+02  9.8058749286799423e+02  9.7530463459113048e+02  9.6459690160009256e+02  9.7002017545183537e+02  9.6986472236825921e+02  9.5920436869016487e+02  7.0734814371810114e+02  7.0220019401449929e+02  6.9182729895334955e+02  6.9704895282809832e+02  6.9691974523421061e+02  6.8664686809886359e+02  6.4648546547452509e+02  6.5162295111691515e+02  6.6202738888850331e+02  6.5675933786561950e+02  6.5684697588594418e+02  6.6725999228924684e+02  9.4930615296161966e+02  9.5966460978917632e+02  9.5422236935810020e+02  6.7692567496264360e+02  6.8698738651058329e+02  6.8176348070889730e+02  6.6683236102342698e+02  6.7212149615988699e+02  4.6325684357037568e+02  4.5564326767660378e+02  4.6084047900479192e+02  4.7229914335906426e+02  4.7979686011014508e+02  4.7466753297256827e+02  6.3614381937234771e+02  6.4644274169227879e+02  6.5265741826620058e+02  6.4234908184091694e+02  6.4855679061308001e+02  9.9133217657110333e+02  9.8066829593682314e+02  9.7425651440806803e+02  9.8491205511575595e+02  9.7849650250170157e+02  7.1774538600598521e+02  7.0738374310768847e+02  7.0112910398185545e+02  7.1148048918584368e+02  7.0521804291760770e+02  4.2785502839149342e+02  4.3793846399456947e+02  4.4401811436937868e+02  4.3392596204624181e+02  4.3999829720183703e+02  3.1825816888709716e+02  3.2792670153578007e+02  3.2287513949078402e+02  3.0861271792462594e+02  3.1358526654386969e+02  1.5317398984854179e+02  1.6266438872239601e+02  1.5770229704556056e+02  4.3259317467231824e+01  5.3391505236576393e+01  4.8500056300123020e+01  1.4370500518221127e+02  1.4858326308152704e+02  9.3903177748231371e+02  9.4433047131677267e+02  7.7531198945947790e+02  7.8449844609951072e+02  7.7928594816111399e+02  4.5250894621586576e+02  4.5027727413051025e+02  4.4624985374455400e+02  9.6268350503076510e+02  9.6635136128659246e+02  9.7058836754398158e+02  6.8989897310169647e+02  6.9347503563192561e+02  6.9755420514964499e+02  6.6390281767772728e+02  6.6033370584411534e+02  6.5622525167591562e+02  5.2886127966725496e+02  5.3644859681988430e+02  5.3135739216654440e+02  8.1641164825822034e+02  8.0503411463458360e+02  8.1605524675823312e+02  9.0581728067522147e+02  9.1728858129193259e+02  9.0618203375714643e+02  8.4712671590050684e+02  8.5852675454920279e+02  8.4749397761864032e+02  1.1308773337157146e+02  1.2366336383645944e+02  1.1343029024720053e+02  8.4554987322981816e+01  7.4032574181447757e+01  8.4255673870018470e+01  5.6637322096476635e+02  5.5518845808218316e+02  5.6595245220576464e+02  1.9344629455384018e+02  1.8279424398756115e+02  1.9314559220374889e+02  2.2232755128953369e+02  2.3303030691132872e+02  2.2267465493637755e+02  2.7743110475962197e+02  2.8820078259419091e+02  2.7777535879631404e+02  3.5946043802909770e+02  3.4851895454712570e+02  3.5907669379248773e+02  5.0932801232144146e+02  4.9830420224891702e+02  5.0901040838212788e+02  4.8117430747928682e+02  4.8423360683432998e+02  4.8856699098691496e+02  3.3081462523078272e+02  3.3420375191201526e+02  3.3847304742693683e+02  3.0566065193563486e+02  3.0232437173942037e+02  2.9811759626764041e+02  5.3764953097003593e+02  5.4084652800116987e+02  5.4516622307218495e+02  2.5017630526078432e+02  2.4696148991119699e+02  2.4278821061810578e+02  1.6563890639847847e+02  1.6889512732884504e+02  1.7309263720008389e+02  5.9447517491024556e+01  6.1484045798280178e+01  6.5627376702018068e+01  1.4081179411236099e+02  1.3753382311758591e+02  1.3340722226298274e+02  7.8711763644068640e+02  7.9040434721410293e+02  7.9483357510470478e+02  9.3588286592709142e+02  9.3233067605488668e+02  9.2784728674280620e+02  8.7678195810059356e+02  8.7336084949359577e+02  8.6891127712195475e+02  7.6505077944655670e+02  7.6957492820723144e+02  1.0485776482887893e+03  1.0383658972877690e+03  1.0435853446489232e+03  1.0485068995538300e+03  1.0394652886535830e+03  1.0435083839346407e+03  1.0583606314211720e+03  1.0534526354741831e+03  1.0584295283983345e+03  1.0535528344004040e+03  2.5321483948646307e+01  3.6990605242630771e+01  2.8022602476337230e+01  3.0719906410935003e+01  3.4283678579868749e+01  1.1231577255528907e+03  1.1232180939953178e+03  1.1308853894006254e+03  1.1232751595127711e+03  1.1308296014263410e+03  1.1385057439115876e+03  1.1231615482817622e+03  1.1232226198759022e+03  1.1308883355037376e+03  1.1308323505401170e+03  1.1385057439115876e+03  1.0920976147186961e+03  1.0801529207846463e+03  1.0852711538171789e+03  1.0921425334050539e+03  1.0802141301371198e+03  1.0853529278627848e+03  1.3849115857712016e+01  1.3902414177454427e+01  6.9744676592115677e+00  1.3953000239399859e+01  6.9237496152381830e+00  0.0000000000000000e+00  4.0847966513896540e+02  4.0155048846141318e+02  4.0988303347244653e+02  4.0014815819802857e+02  4.0708572477185692e+02  6.1634484443093356e+02  6.0926686112317839e+02  6.1776518336827678e+02  6.0784728339314233e+02  6.1493288471820279e+02  7.3772503482507102e+02  7.4492219942935287e+02  7.3632281919328204e+02  7.4631976093537287e+02  7.3911577279062067e+02  1.0133650020910356e+03  1.0207607210384389e+03  1.0179315766637701e+03  1.0105535054389341e+03  1.0077278039012830e+03  1.3684070197116220e+01  1.3819801338185401e+01  6.9756506726730416e+00  6.8391047343617464e+00  0.0000000000000000e+00  3.7826937702178799e+02  3.8578443456431887e+02  3.8087324706121996e+02  5.8541766919382371e+02  5.9309176465755547e+02  5.8803757717687222e+02  7.6888105822919317e+02  7.6120145660413493e+02  7.6628318993736775e+02  1.0383518463099340e+03  1.0485722723776653e+03  1.0485560274107984e+03  1.0583832361011537e+03  1.0485356701783924e+03  1.0584143644419019e+03  1.0394880336939354e+03  7.6412207774654973e+02  7.7438257672848033e+02  7.7345508877719919e+02  3.8941332847177358e+02  3.9131321585548233e+02  3.9965041173903961e+02  3.9135201383138462e+02  4.0158645587174573e+02  5.9558315379318549e+02  5.9817360974728217e+02  6.0667450028666110e+02  5.9885966662958413e+02  6.0994677727430383e+02  1.0248399633213219e+03  1.0264975068033511e+03  1.0162811509816922e+03  7.5754996892882923e+02  7.5616970911188412e+02  7.6550371838368187e+02  7.4554644344125848e+02  7.4693164197690237e+02  7.5554050211824051e+02  1.0664680401231155e+03  1.0673758902967968e+03  1.0575103063185250e+03  1.0673441987670926e+03  1.0760739644251798e+03  1.0751968395881418e+03  1.0839247042779348e+03  1.0276336026926585e+03  1.0366950271124542e+03  1.0761032385506476e+03  4.0959778742545143e+02  4.0145084226335445e+02  4.0973939491459220e+02  6.1748067222686188e+02  6.0981038080112444e+02  6.1762269641231421e+02  7.3668838732388065e+02  7.4573688163794338e+02  7.3651464803699275e+02  3.2453853479871793e+02  3.1195478703540232e+02  1.5940838316766886e+02  5.1354930708827006e+01  1.4698856188475642e+02  9.4259012049119656e+02  1.0181030055591091e+03  1.0095521268646061e+03  1.0113663368819144e+03  1.0208919948808347e+03  3.1829751971128826e+02  3.1197720414458513e+02  3.1827991075331022e+02  3.2455495137754980e+02  1.5321834040763329e+02  1.4701333028467121e+02  1.5319815117274010e+02  4.4815440364388060e+01  5.2131532814224038e+01  4.4040370234280950e+01  1.5942757860178281e+02  9.4934246699572373e+02  9.4261052603643486e+02  9.4932635392350846e+02  3.7213237278236522e+02  3.8384814629996839e+02  3.8077166115170360e+02  3.7520611565995472e+02  5.7924567112909642e+02  5.9050306830421198e+02  5.8741304043214075e+02  5.8233529766929144e+02  7.6321063813946591e+02  7.7116509090373540e+02  7.8121042505653099e+02  7.8028699335903741e+02  1.1107572211799825e+03  1.0976200876321400e+03  1.1069513377653984e+03  1.1031468198730088e+03  1.1014267059360925e+03  1.1107574310885068e+03  1.0976351574713685e+03  1.1069533719639837e+03  1.1014432825988224e+03  1.0880301852449777e+03  1.0880060085499913e+03  2.5999349554785169e+02  2.5186439328604018e+02  2.5680948478120911e+02  8.8724551915978464e+02  8.7858662061907978e+02  8.8385721661495313e+02  9.5599668075802549e+02  6.7040506813446916e+02  6.8340949342889712e+02  9.5601199441112544e+02  6.7687511948745214e+02  6.7038879627042559e+02  6.7689769471787542e+02  6.8338732554087392e+02  4.6771869658304007e+02  4.7673702543162955e+02  4.7444662633016372e+02  4.7000807842964201e+02  5.5272448909838795e+02  5.4325785370992480e+02  5.5362166896365909e+02  2.9045507076753194e+02  2.8961192790107498e+02  2.9966218030297716e+02  3.4604921069773707e+02  3.3679048302977520e+02  3.4694021146447750e+02  4.9587978807535438e+02  4.8647333816461139e+02  4.9678334090674798e+02  7.1714238996269515e+01  6.2740555578382249e+01  7.2577969923579616e+01  1.2587174866763101e+02  1.2504419539621846e+02  1.3491239063967745e+02  1.8044002119642676e+02  1.7135622979142923e+02  1.8131615800098155e+02  2.3526911865258131e+02  2.3443086418919415e+02  2.4442186617584917e+02  8.6092107064963591e+02  8.6002546079707213e+02  8.7066960800253344e+02  9.1969482421994098e+02  9.1879528652556417e+02  9.2950374197378585e+02  8.0259079339911875e+02  7.9289385485212370e+02  8.0351060282934600e+02  3.8311960885653201e+02  3.7448263727213924e+02  3.7682210646694892e+02  5.8993143446683428e+02  5.8176371840825971e+02  5.8427431372214460e+02  5.2228888303572751e+02  5.1617263472192997e+02  5.2302204760236646e+02  5.1544018378785199e+02  5.2155680490244958e+02  8.3108855242806487e+02  8.2409674717751591e+02  8.3177199734891849e+02  8.2340419886780046e+02  8.3041713083989669e+02  8.3245904712838433e+02  8.3944723508991945e+02  8.4013774240645682e+02  8.3314856152554501e+02  5.3325196849345355e+02  5.2593821275329708e+02  5.3033549064100691e+02  3.8501753466187500e+02  5.9320448487225690e+02  3.7765451504078207e+01  4.0461581020542434e+02  6.1241025425018643e+02  1.0159893285476999e+03  7.4163904156204433e+02  3.8006622524577324e+02  5.8755861900842854e+02  4.5787756094887391e+02  4.6011271900877858e+02  4.6548781700134003e+02  6.3447407007015534e+02  6.4560054797407849e+02  6.3531033036557676e+02  9.9304756156350356e+02  9.8152612770902749e+02  9.9219475438959591e+02  7.1923869386087381e+02  7.0812804502784081e+02  7.1849607052779822e+02  4.2644493110721663e+02  4.3722750992003364e+02  4.2715146152364269e+02  2.0788446234554331e+02  2.1511900885701016e+02  2.0791403677692978e+02  2.1508967395100277e+02  2.0785446179678999e+02  2.0067828814183707e+02  2.0064806174443765e+02  9.8817552958945114e+01  1.0596485480169974e+02  9.8844951193968626e+01  1.0593718480933829e+02  9.8789874487889534e+01  9.1697532640789447e+01  9.1670228431937019e+01  1.0935355427934926e+03  4.3956576898664144e+02  4.3878879838012762e+02  4.4892164150677337e+02  9.7889600741010861e+02  9.6903670684225551e+02  9.7974161594584439e+02  7.0574332369525678e+02  6.9613803915721610e+02  7.0655265973640144e+02  6.4809006211661153e+02  6.4729780072662004e+02  6.5764262820900831e+02  5.3454621150195123e+02  5.2878248861299573e+02  5.2805050060677456e+02  8.4333345198215977e+02  8.3755238415628219e+02  8.3687057669039325e+02  8.2021965651199343e+02  8.2599479109362915e+02  8.2668194715700611e+02  2.6428078755303699e+02  2.5508319053064722e+02  2.5722678303005245e+02  2.6214014319041092e+02  8.9180563045116776e+02  8.8201204548451972e+02  8.8429175039405641e+02  8.8952843658485642e+02  0.0000000000000000e+00  0.0000000000000000e+00  6.9758523424670162e+00  1.1385057439115876e+03  1.1385057439115876e+03  1.1308886936755016e+03  1.1385057439115876e+03  0.0000000000000000e+00  4.0594376104076156e+02  6.1373578078625314e+02  1.0149667560484005e+03  7.4053241946872686e+02  1.1169547525701016e+03  1.1170131252164203e+03  1.1169585875462776e+03  1.1170151878422416e+03  5.4627910399261793e+01  4.6246259260386260e+01  5.4269838977713263e+01  5.3938141435073717e+01  4.6617312958918276e+01  3.8591299164515362e+01  4.1801911747281429e+02  4.1816396917255275e+02  6.2597631437896143e+02  6.2611931532589517e+02  7.2796241251079960e+02  7.2777913806277888e+02  1.0022015679042194e+03  1.0003871690868363e+03  3.6813589855753406e+02  3.6579459660612321e+02  5.7531958050259982e+02  5.7281218889176409e+02  3.5791568370441546e+01  3.7223932274390563e+01  4.4848869702789379e+01  1.9581664668970770e+01  1.9639005702839864e+01  2.6871260107679529e+02  2.7085183038461804e+02  8.9653129163158508e+02  8.9880732690582022e+02  2.4443939790953898e+01  1.9060747815062371e+01  1.9197028135342954e+01  2.6601507454310280e+02  2.7474077935946610e+02  2.7208585692173875e+02  8.9366114500602805e+02  9.0295401931499111e+02  9.0012455771655164e+02  4.2244060805608507e+02  4.1615919045950295e+02  4.1476161079015895e+02  6.3085046414595217e+02  6.2430534001157605e+02  6.2288963070225418e+02  7.2303821243467428e+02  7.2967828009901916e+02  7.3107643785804896e+02  9.9743156403374883e+02  1.0025798661182120e+03  1.0053893531657385e+03  3.7072067811261132e+02  3.6204410802795076e+02  3.6458786294403416e+02  5.7800751520674964e+02  5.6906234534476880e+02  5.7172547243901818e+02  3.5033888440145155e+01  2.6076144954639432e+01  2.6823533110109860e+01  9.0016439389274205e+02  8.8996381966871252e+02  8.8578403180283897e+02  8.7976880431672907e+02  8.9598572506194580e+02  1.5325857102988590e+02  1.5818069482778884e+02  1.6314307549981530e+02  1.4829876389079922e+02  1.4338293241299112e+02  3.2738581889115932e+02  3.1782519953115985e+02  3.1328324500109051e+02  3.0827534439577539e+02  3.2284200551988334e+02  1.9888674058012566e+02  2.0789890296452435e+02  2.1241589200921618e+02  2.1692345683925714e+02  2.0340003917401145e+02  8.9921974636630154e+01  9.8828726380196301e+01  1.0329248631225168e+02  1.0774650218282399e+02  9.4383202267185055e+01  2.7213024154531013e+02  2.5863037957512864e+02  2.6820656272519966e+02  2.6255528994109022e+02  2.5298548472154727e+02  3.6241627143925882e+02  3.6727764929118973e+02  3.7033788244037737e+02  5.6989382549136451e+02  5.7457147245960732e+02  5.7765213613337153e+02  7.8529996250744637e+02  7.7937467935192944e+02  7.7709230445616117e+02  4.5647481040572688e+02  4.6209779727518134e+02  4.6438205443436823e+02  5.1404416445408197e+02  5.1853563345675946e+02  5.2145120854809193e+02  4.7062597250202907e+02  4.7285203329067201e+02  4.7798646787419699e+02  6.6685935348942837e+02  6.8201309525425279e+02  6.7186588302490838e+02  6.7700381336292560e+02  6.8715433898466097e+02  9.5968405911707816e+02  9.4916687544814170e+02  9.4399917650729753e+02  9.3866243518712042e+02  9.5451421820479754e+02  3.4652959151697736e+01  4.1707739992972769e+01  3.5364174329347418e+02  3.5622333849176442e+02  5.0350461883414067e+02  5.1203839259563097e+02  5.0621325988490048e+02  5.1472908936463637e+02  1.8781650518026663e+02  1.9605753422367329e+02  1.9042473879276369e+02  1.9863933449221807e+02  8.1041093049464882e+02  8.1924651166493572e+02  8.1321150079725521e+02  8.2202528946123903e+02  2.2795821289178753e+02  2.1964698819672606e+02  2.2527525789674289e+02  2.1699699201498740e+02  9.1185531298937747e+02  9.0898748588741489e+02  8.5312639573689319e+02  8.4427709272060554e+02  8.5027466509079431e+02  8.4146791586523148e+02  1.1865121809291603e+02  1.1044003048486337e+02  1.1600031587331671e+02  1.0782353123742990e+02  7.8995129586822628e+01  8.7137070573601747e+01  8.1574221851744170e+01  8.9688405224674298e+01  2.8309878114627708e+02  2.8040474701030769e+02  5.6043564403316600e+02  5.6308928366795294e+02  6.3772750170545726e+02  6.3175243286133639e+02  6.2906186456662556e+02  6.4047738503954724e+02  7.1615468579409151e+02  7.2215068521906448e+02  7.2502613551210618e+02  7.1328997687333037e+02  9.8962047839250829e+02  9.9586932509773658e+02  9.9863951728423751e+02  9.8681477200356767e