<?xml version="1.0"?>
<VTKFile type="UnstructuredGrid"  version="0.1"  >
<UnstructuredGrid>
<Piece  NumberOfPoints="2690" NumberOfCells="4864">
<Points>
<DataArray  type="Float64"  NumberOfComponents="3"  format="ascii">-5.040587477357167 22.00891337251734 0  -5.636514172768597 21.27150130715044 0  -5.039778344773259 21.50964481805088 0  -5.038845631093182 21.00896836373968 0  -5.637307518142986 21.77166169570662 0  -6.234050948188562 21.53297049998978 0  -9 21.99999999996945 0  -8.402800637206846 21.26436267907651 0  -9 21.49999999997139 0  -9 20.99999999997333 0  -8.402941680149361 21.76435224463744 0  -7.805750293181785 21.52868129064827 0  -9 32.9999999999446 0  -8.405896699787929 32.26433376670345 0  -9 32.49999999994358 0  -9 31.99999999994255 0  -8.406037754960357 32.76433637235557 0  -7.811941820419506 32.52865178766386 0  -5.061137039734676 33.00963949860689 0  -5.571810179013603 32.30589585551986 0  -5.060288813428254 32.5109176222463 0  -5.059310724473264 32.009331427734 0  -5.572628141248154 32.80614153230315 0  -6.084142968935805 32.60126324046742 0  -5.100763940751583 54.00920436133194 0  -5.689805293016168 54.74627411129541 0  -5.689024322759199 54.24665668063817 0  -6.277188468259222 54.48276170913078 0  -5.101662497529659 54.50987248145884 0  -5.102492746600388 55.00930000654392 0  -9 54.99999999998974 0  -8.483342319873742 54.297687942957 0  -9 54.49999999998872 0  -9 53.99999999998769 0  -8.483465139231956 54.79765023330707 0  -7.966832521732566 54.59531250766104 0  -9 39.99999999995897 0  -8.408291736410474 40.73930530162983 0  -8.408150681875014 40.23930715750388 0  -7.816435884774112 40.47858798869231 0  -9 40.49999999996 0  -9 40.99999999996102 0  -5.07613390885548 41.00854034706478 0  -5.640496848999412 40.27700593658569 0  -5.075294503874808 40.50991763097296 0  -5.074387691302994 40.00961562044818 0  -5.641292140645727 40.77686095753899 0  -6.206498940236218 40.54362492749571 0  -9 55.99999999999179 0  -8.436965622737681 56.74499877209627 0  -8.436844031086752 56.24497506721512 0  -7.87381543413573 56.48994935010386 0  -9 56.49999999999282 0  -9 56.99999999999384 0  -5.104525888255795 56.0087976126914 0  -5.668814059279683 56.75214500725586 0  -5.668039677947753 56.25210816172103 0  -6.231430715069162 56.49431654210569 0  -5.105480835887904 56.51016748740703 0  -5.106307905455135 57.00932624873566 0  -7.468730551064974 43.00504522596999 0  -6.637925916092868 43.11605035567041 0  -7.235276167153908 43.34323791812181 0  -7.001895810566558 43.68143794844431 0  -6.871306961605384 42.77780284960066 0  -6.273753889417767 42.55056200573346 0  -6.618039266903026 49.00951522850573 0  -7.446517551083343 48.89797720766568 0  -6.850754540912991 48.67125508711592 0  -7.083550080781085 48.3329668994943 0  -7.213728165292766 49.2362181069336 0  -7.809284105126715 49.4629892473104 0  -6.614608928535709 46.0089392756169 0  -7.444282129056152 45.89760621500231 0  -6.847667973176455 45.6705763195103 0  -7.080804457070805 45.33225938232324 0  -7.211151124127771 46.23591686564927 0  -7.807563820905682 46.46286076987575 0  -6.570296086903924 7.009262043900927 0  -7.415384614846995 6.897859476711297 0  -6.807694016759569 6.670996764464083 0  -7.045169537524132 6.332733774379963 0  -7.177914621055705 7.236121299925182 0  -7.785404527835591 7.462973477746257 0  -7.459218869938861 30.00498833512918 0  -6.623250553397091 30.11592453509957 0  -7.224314929938422 30.34304519341789 0  -6.989486374806003 30.68107154511072 0  -6.858081989509914 29.77783813903708 0  -6.256813571292771 29.55073666486448 0  -6.56700066772745 4.008820047932035 0  -7.413406586072623 4.113925164230852 0  -6.805391950995189 4.345372048863077 0  -7.04371411187971 4.681894790775835 0  -7.175089001362065 3.777384107461302 0  -7.783288163881378 3.546006457065132 0  -6.573659179844816 10.00934329884602 0  -7.417733096812992 10.11427490756604 0  -6.811408198514612 10.34577840597264 0  -7.049085866851613 10.682213769603 0  -7.180049916732769 9.777848346501711 0  -7.786570829295403 9.546342815960076 0  -6.57703050637374 13.00942350867623 0  -7.419772560718077 12.89798956142571 0  -6.813765591517878 12.67116128458029 0  -7.05057779514463 12.33290215210662 0  -7.182963701841199 13.23626255079529 0  -7.788770394163969 13.46307488799175 0  -6.580416952040681 16.00956774725202 0  -7.42198336478031 15.89803150154302 0  -6.816819442176952 15.67131601230181 0  -7.053300434432865 15.33304121262286 0  -7.185508157116176 16.2362719720423 0  -7.790468966892576 16.46303017337373 0  -6.583853167670242 19.00856828057668 0  -7.424386389371545 19.1136704329682 0  -6.820622302878964 19.34485096484894 0  -7.057312535031267 19.68118754419656 0  -7.187690131606907 18.77730647011872 0  -7.791661317210579 18.54601976233567 0  -6.592953497084417 27.00824786621115 0  -7.430321404133004 27.11346958221177 0  -6.828824010668952 27.34471085785764 0  -7.06462067056722 27.68118668964899 0  -7.194521493383152 26.77694322790793 0  -7.796218214817008 26.54571344937374 0  -8.275563921186215 19.09642537380653 0  -8.03364451125214 18.82120846673952 0  -8.395752697938782 18.27303476828741 0  -8.637687383379628 18.54825169571859 0  -9 17.99999999998495 0  -8.278293392935113 27.09632435192978 0  -8.037287034552833 26.8210200060598 0  -8.398032428350939 26.27284854778099 0  -8.639053716363662 26.54816052014279 0  -9 25.99999999995395 0  -8.274469255952958 15.90893759497068 0  -8.032437548265122 16.18598895415237 0  -8.395311503701995 16.73149485663599 0  -8.637327951237292 16.45445410509898 0  -9 16.99999999998883 0  -5.776471804711043 30.1047989483296 0  -6.016608961808518 29.82775657198871 0  -5.65534225186832 29.28191655884968 0  -5.415187174689006 29.55937777930343 0  -5.05357992014248 29.00889959143229 0  -8.273452141594232 12.90893415457518 0  -8.031080028721288 13.18600264578778 0  -8.394461144302634 13.73154132596351 0  -8.636818493215168 13.45447139861688 0  -9 13.99999999999401 0  -8.272504961347895 10.0967085510351 0  -8.029568691662423 9.821526056754818 0  -8.393209307607291 9.273169931363036 0  -8.636160748463848 9.548352499927198 0  -9 8.99999999999857 0  -8.270522242399757 4.096543029116366 0  -8.026933250673604 3.821282188473079 0  -8.391582491943758 3.272990292550435 0  -8.635179488845511 3.548253017064033 0  -9 2.999999999998668 0  -8.271435551742936 6.908869058700872 0  -8.028388963772011 7.185919494027418 0  -8.392777870188668 7.731489407112104 0  -8.635809414592874 7.454439967499573 0  -9 7.999999999999485 0  -8.284721653495557 45.90875237655234 0  -8.046111329329751 46.18579623344226 0  -8.403858699911453 46.7314465362904 0  -8.642453789442376 46.45440359185623 0  -9 46.99999999997333 0  -8.285749591308745 48.9089075293613 0  -8.04748477922973 49.18595337879025 0  -8.404720052234136 49.73147369001389 0  -8.642969475077614 49.45444082183266 0  -9 49.99999999997949 0  -5.796386337046808 43.10490670522531 0  -6.035035772455801 42.8277302897403 0  -5.675997294384993 42.28161772319876 0  -5.437332383146134 42.55926165649285 0  -5.077939919670136 42.008539684918 0  -5.762367264526526 23.92732487850547 0  -6.008754374491208 24.19409897415898 0  -5.650620326944282 24.73699411150513 0  -6.255074859371015 24.46090225402342 0  -5.404276617482308 24.47064237370536 0  -5.046278829119472 25.00886496031639 0  -8.291480613602751 52.08616959753985 0  -8.048625391630249 51.81934176737905 0  -8.40277351278805 51.27629404446786 0  -7.805706814890221 51.55253905405029 0  -8.645646604252573 51.54312133153783 0  -9 50.99999999998153 0  -5.784038302419248 38.09455664705131 0  -6.028016990355411 37.82579757251261 0  -5.670458044582148 37.2848941295596 0  -6.272061639691873 37.55707043736832 0  -5.426459365861886 37.55415821469291 0  -5.068534801810205 37.00814305548171 0  -5.779183429146852 34.92723836766152 0  -6.024297139279398 35.19394885233217 0  -5.668035402352034 35.73673337030637 0  -6.269344362371715 35.46068751187804 0  -5.422959293844736 35.47050768875346 0  -5.066848264847007 36.00846755723526 0  -7.9100094698608 50.50431157736286 0  -7.857844549069971 51.02843652925274 0  -8.455070724462617 50.75213233627904 0  -6.165229692960708 36.50880130117647 0  -6.218655701575374 37.03288031607659 0  -5.616902005186495 36.7600517736376 0  -6.217275573440664 35.98468754554426 0  -5.616103843560132 36.25995699115284 0  -6.012039285529791 25.26963796032445 0  -6.133537344796966 24.8652898316988 0  -5.529195772316148 25.14087792824576 0  -8.039083457968767 25.74901616440308 0  -7.917628038224621 26.14736451838315 0  -8.519570234891308 25.87450952518735 0  -6.975146174440942 34.3823995627239 0  -6.622153090247084 34.92159346526132 0  -6.87527943055952 35.24526635465224 0  -7.228283444612612 34.70614550083054 0  -7.481341839559471 35.02987570101986 0  -7.105273127278812 52.63057815427158 0  -7.455397114101503 52.09160587546255 0  -7.204383187089385 51.76807084815194 0  -6.854268725179749 52.30706998254579 0  -6.603184198020116 51.98358757663483 0  -6.979245816790407 38.63053936521359 0  -6.625745626773238 38.09385604183367 0  -6.877831318929947 37.76844261174455 0  -7.231321662898305 38.3052034407817 0  -7.48347603104124 37.97984870398204 0  -6.964577983030507 23.38244738860033 0  -6.609735256908388 23.92170540427601 0  -6.86417816234087 24.24541838698279 0  -7.219032507274602 23.70622235624242 0  -7.473408709370484 24.02997235382922 0  -7.892915097850322 17.5041740068742 0  -7.842275016335882 18.02511014159385 0  -8.446523080974087 17.75206272129814 0  -7.841704322178317 16.98360695779024 0  -8.446392075800592 17.25210040891046 0  -7.888267313694201 8.504271441602983 0  -7.837406934599062 9.025307970517259 0  -8.44419743667008 8.752136680792029 0  -7.932573468172123 2.419307937524198 0  -7.857904787011461 2.982645901060946 0  -8.466347182244609 2.709666524759696 0  -7.836848275216425 7.983624799457568 0  -8.444069282115402 8.252132712549619 0  -7.85965952584098 49.98365568881474 0  -8.454938300874066 50.25216952208263 0  -6.084071244010019 41.60174344681758 0  -6.178933086364913 42.076190575700
[...]
<PointData  Scalars="f_29"> 
<DataArray  type="Float64"  Name="f_29"  format="ascii">2.6841358078570067e+02  2.5923665226597933e+02  2.6217854314345493e+02  2.5595293380408251e+02  2.6543390118560967e+02  2.6248391290480788e+02  2.6836989098461112e+02  2.5919219992014195e+02  2.6213374415457753e+02  2.5590621706681836e+02  2.6538955027062968e+02  2.6245728607160481e+02  4.0505487326256048e+02  3.9576839304444752e+02  3.9874321812589568e+02  3.9244166851064307e+02  4.0203982579887065e+02  3.9907235984494372e+02  4.0507111840950648e+02  3.9624243854627878e+02  3.9879165541116248e+02  3.9252520141890562e+02  4.0250004023028214e+02  3.9994711023370553e+02  6.7046372813614289e+02  6.7998824437778171e+02  6.7356560865582708e+02  6.7660986687827358e+02  6.7691284538670163e+02  6.8338904004835410e+02  6.8331931975982798e+02  6.7428588356735963e+02  6.7689504455223585e+02  6.7046957666764820e+02  6.8070066621468027e+02  6.7809617484005230e+02  4.9275961666884626e+02  5.0214720355060490e+02  4.9582135497151421e+02  4.9883512334801406e+02  4.9912653111521126e+02  5.0548507208908973e+02  5.0552536408477192e+02  4.9624652651410423e+02  4.9917925896189490e+02  4.9282297254280070e+02  5.0257687573262450e+02  4.9963571855475368e+02  6.9610638368628952e+02  7.0570263305014714e+02  6.9927341279541213e+02  7.0240535643162411e+02  7.0254549546698900e+02  7.0902029958244384e+02  6.9615747701940757e+02  7.0573993280052514e+02  6.9931322437250947e+02  7.0242964812724665e+02  7.0259143108649926e+02  7.0906717563102711e+02  5.3072455030584695e+02  5.3210030387834513e+02  5.3498842641219449e+02  5.3925505438397079e+02  5.2783847215891853e+02  5.2495393946495983e+02  6.0673639029244509e+02  6.0534846127078924e+02  6.0244623194986616e+02  5.9815776368305126e+02  6.0964057837030634e+02  6.1254185565193154e+02  5.6868247302916825e+02  5.6729533090669406e+02  5.6440802498234791e+02  5.6013375249341675e+02  5.7157191186955583e+02  5.7446016612538097e+02  8.4648796386723234e+01  8.3318348106356765e+01  8.0551248487066729e+01  7.6454817525226204e+01  8.7417975635694901e+01  9.0184707504063269e+01  3.6753901065969171e+02  3.6889706949044677e+02  3.7174625061338782e+02  3.7595700830853218e+02  3.6469386079588702e+02  3.6184897741438181e+02  4.8300083459769205e+01  4.9597414872174490e+01  5.2377963016744992e+01  5.6456690084655087e+01  4.5521206035186282e+01  4.2743436272818570e+01  1.2112621781309090e+02  1.2243212060425422e+02  1.2523210135814205e+02  1.2933840790043311e+02  1.1832780725937940e+02  1.1553183996534085e+02  1.5771879891353910e+02  1.5637975349745795e+02  1.5359412663384481e+02  1.4947056077836999e+02  1.6050603498536265e+02  1.6329138694990118e+02  1.9443126396605706e+02  1.9309133367662241e+02  1.9029223963215634e+02  1.8615487994611578e+02  1.9723221098443864e+02  2.0003017888115571e+02  2.3129160268026527e+02  2.3261862616515015e+02  2.3544643786668766e+02  2.3960380042922159e+02  2.2846768189494759e+02  2.2564375083166976e+02  3.3024254573207907e+02  3.3157903241550321e+02  3.3442963088032593e+02  3.3861849259809958e+02  3.2739478854228349e+02  3.2454580329562560e+02  2.3243096488219888e+02  2.2903848656542397e+02  2.2231686150410488e+02  2.2570124663431548e+02  2.1901117157992971e+02  3.3139167261176834e+02  3.2796897241129398e+02  3.2118518506109694e+02  3.2459997326536887e+02  3.1783868962964237e+02  1.9324893218396406e+02  1.9663878583979394e+02  2.0333162126954272e+02  1.9993841456532601e+02  2.0659890713480883e+02  3.6871896082094798e+02  3.6528545994461439e+02  3.5849785169981902e+02  3.6191073781796894e+02  3.5516476614680869e+02  1.5653455307458574e+02  1.5991219844120425e+02  1.6657842278059232e+02  1.6320505057250384e+02  1.6985009124399744e+02  1.2224520221263109e+02  1.1888939998647135e+02  1.1223879986480469e+02  1.1558676256044491e+02  1.0896743345621327e+02  4.9412887860094216e+01  4.6078454134447597e+01  3.9467393179911262e+01  4.2801479041258538e+01  3.6224319580997516e+01  8.3470296364487851e+01  8.6826856694301284e+01  9.3450672066456136e+01  9.0091414954995756e+01  9.6682986718590371e+01  5.6745807553518159e+02  5.7095827231100418e+02  5.7786894370874109e+02  5.7437288156012960e+02  5.8126225411466976e+02  6.0551301363421976e+02  6.0902664765794327e+02  6.1596521445776546e+02  6.1244821642196075e+02  6.1935487889041622e+02  5.3192244790796133e+02  5.2843977392888587e+02  5.2155841746195222e+02  5.2501981881157099e+02  5.1818629701241343e+02  2.9202856533254709e+02  2.9534343915468941e+02  3.0205430842814286e+02  2.9865791006829977e+02  2.9872928200013126e+02  3.0543910968696207e+02  6.4599713012067775e+02  6.4258668593175742e+02  6.3568486611032517e+02  6.3917486164296406e+02  6.3908674347146177e+02  6.3221600823294330e+02  4.6874055766439875e+02  4.6538064884918600e+02  4.5860409493596399e+02  4.6201882457875513e+02  4.6193982422155386e+02  4.5521509433940980e+02  4.2899150857086198e+02  4.3234859965379070e+02  4.3913954095000389e+02  4.3570549144201243e+02  4.3576560564577380e+02  4.4254574883255651e+02  6.2580701374350087e+02  6.3249287063023564e+02  6.2898810433697099e+02  4.4887021630007951e+02  4.5544614205428610e+02  4.5202255992762855e+02  4.4228238714341177e+02  4.4572747585226256e+02  3.0868191819344298e+02  3.0366710942162649e+02  3.0708178311195508e+02  3.1467044556730121e+02  3.1960891192174716e+02  3.1623724093032627e+02  4.2223127188557680e+02  4.2896568299356920e+02  4.3303009816348066e+02  4.2629225006526912e+02  4.3035412753129833e+02  6.5291033008497755e+02  6.4603855238398228e+02  6.4190043340428304e+02  6.4876860278558377e+02  6.4462862623901867e+02  4.7552347692992549e+02  4.6876525938641555e+02  4.6468624015132065e+02  4.7144042106970846e+02  4.6735826986542730e+02  2.8534240488587369e+02  2.9199711569238241e+02  2.9601032822862641e+02  2.8935265037560544e+02  2.9336304293396262e+02  2.1282482325143565e+02  2.1923601227964923e+02  2.1589434076593776e+02  2.0642258750576502e+02  2.0973188446111999e+02  1.0284749741809134e+02  1.0919179136641641e+02  1.0588347966321345e+02  2.9124985796378695e+01  3.5936744885848547e+01  3.2656176086615659e+01  9.6511418207510133e+01  9.9784970346331335e+01  6.1916946978990632e+02  6.2260073274169258e+02  5.1299361151498931e+02  5.1897405760854087e+02  5.1557411837101836e+02  3.0161133451800617e+02  3.0013575087893622e+02  2.9748554062581161e+02  6.3443149027047320e+02  6.3680280900597165e+02  6.3952941056141015e+02  4.5735636406207971e+02  4.5968773014141124e+02  4.6235573470398288e+02  4.4037847651000254e+02  4.3804321262420444e+02  4.3536454890382555e+02  3.5186693854466591e+02  3.5685803264005563e+02  3.5350108452578053e+02  5.3971345964198292e+02  5.3232767273561319e+02  5.3948547927932270e+02  5.9769700662831463e+02  6.0511641836929607e+02  5.9792733918471220e+02  5.5966925286724916e+02  5.6706269785508482e+02  5.5990152922220125e+02  7.6009085467571907e+01  8.3094087424809942e+01  7.6232512219596856e+01  5.6871701374790767e+01  4.9806172565008545e+01  5.6665062749921987e+01  3.7650750083594465e+02  3.6917123737534143e+02  3.7623439027459455e+02  1.2975540392988574e+02  1.2264215703646147e+02  1.2954780370299730e+02  1.4902222746266099e+02  1.5615445394383067e+02  1.4924689957778986e+02  1.8570938360789933e+02  1.9286693599956746e+02  1.8593211045482454e+02  2.4012774872910578e+02  2.3288264562621345e+02  2.3986819766249607e+02  3.3904868907879643e+02  3.3179486820519793e+02  3.3883462238897283e+02  3.2050690541033657e+02  3.2252595213082282e+02  3.2537458346570924e+02  2.2114182599773298e+02  2.2339254848642150e+02  2.2621606554236928e+02  2.0445258228196099e+02  2.0224220347497177e+02  1.9944094532016231e+02  3.5765636937200981e+02  3.5975331123158634e+02  3.6259656053733823e+02  1.6756297906632565e+02  1.6542763297964530e+02  1.6263988941813440e+02  1.1116927806979342e+02  1.1335028366148862e+02  1.1614692640536038e+02  3.9998235706585497e+01  4.1370729180555252e+01  4.4148907825684553e+01  9.4564618159569960e+01  9.2375479136004103e+01  8.9605397586490398e+01  5.2068455860247172e+02  5.2281939266515383e+02  5.2570424203287178e+02  6.1712538683315620e+02  6.1483447348877030e+02  6.1192980515834392e+02  5.7888612267842086e+02  5.7667353586920683e+02  5.7378310283146197e+02  5.0631471952748859e+02  5.0925794262112970e+02  6.8975999999837370e+02  6.8318654289770984e+02  6.8654775006638897e+02  6.8973227650579145e+02  6.8391392285226607e+02  6.8652231103513293e+02  6.9606859140681297e+02  6.9291768205556718e+02  6.9609515080103677e+02  6.9295568086656806e+02  1.7053581199895401e+01  2.4903660189558821e+01  1.8868747796959294e+01  2.0682133101406148e+01  2.3085490383711019e+01  7.3769564188710171e+02  7.3773283271563264e+02  7.4264999425841154e+02  7.3776834004447119e+02  7.4261507554225534e+02  7.4753620049558413e+02  7.3769794806709422e+02  7.3773503994126872e+02  7.4265149783203503e+02  7.4261669151333660e+02  7.4753620049558413e+02  7.1775712506657555e+02  7.1007989184498319e+02  7.1337605993815566e+02  7.1777321221602210e+02  7.1010292011605009e+02  7.1340630223304606e+02  9.3315983104193752e+00  9.3644821796913309e+00  4.6980842351655774e+00  9.3971854756016189e+00  4.6655403736194359e+00  0.0000000000000000e+00  2.7254623505032959e+02  2.6796235190934033e+02  2.7346616221365895e+02  2.6704381687473119e+02  2.7163302648476059e+02  4.0927533541761295e+02  4.0463621486946471e+02  4.1019859878389207e+02  4.0371378890991201e+02  4.0835801191375407e+02  4.8854560243791366e+02  4.9322953933885231e+02  4.8762593200381446e+02  4.9414664492740758e+02  4.8945795639401211e+02  6.6709188389357030e+02  6.7185254180837887e+02  6.7003832914795987e+02  6.6528693196895426e+02  6.6347267707080391e+02  9.2187064852408973e+00  9.3080173893083487e+00  4.6987288122761592e+00  4.6082836330937758e+00  0.0000000000000000e+00  2.5254635242912738e+02  2.5751648423025978e+02  2.5426360032424813e+02  3.8901460083627359e+02  3.9404344746085513e+02  3.9073819382033787e+02  5.0883337415889815e+02  5.0383354837100023e+02  5.0714924714202567e+02  6.8318212111736273e+02  6.8975804421950431e+02  6.8975204250703484e+02  6.9607752269021489e+02  6.8974416523796162e+02  6.9608947045798595e+02  6.8392256517331452e+02  5.0571651297504968e+02  5.1239370694631521e+02  5.1179615296706783e+02  2.5993006721749049e+02  2.6119249430106919e+02  2.6669988117726984e+02  2.6120584971759848e+02  2.6797490732969862e+02  3.9566424178156836e+02  3.9736692893214052e+02  4.0293232842256316e+02  3.9780527124262466e+02  4.0507128745393339e+02  6.7449144087074387e+02  6.7555252212688004e+02  6.6898057002230939e+02  5.0144457952771381e+02  5.0054031573157022e+02  5.0662112850909398e+02  4.9362620984797331e+02  4.9453260460065133e+02  5.0014168626955842e+02  7.0127237332324853e+02  7.0185193212968682e+02  6.9551153240716314e+02  7.0183981575640541e+02  7.0745288843109165e+02  7.0688463305075720e+02  7.1249575645967855e+02  6.7629405964487808e+02  6.8212047410947991e+02  7.0746397022617089e+02  2.7326728968711006e+02  2.6787784853719455e+02  2.7336486840074940e+02  4.1000231623400350e+02  4.0497572042560341e+02  4.1009938214850814e+02  4.8785503384134591e+02  4.9374390195338873e+02  4.8774534184289422e+02  2.1698501937435609e+02  2.0863616440082885e+02  1.0701008710650611e+02  3.4563427701087825e+01  9.8703535140669857e+01  6.2146372357776283e+02  6.7015955844562848e+02  6.6465235910922877e+02  6.6582688462776332e+02  6.7195954006807381e+02  2.1283878058892427e+02  2.0864480504426044e+02  2.1283271082468610e+02  2.1698994778574172e+02  1.0286430927599785e+02  9.8713676075982079e+01  1.0285669731030202e+02  3.0161736434069976e+01  3.5080218208470946e+01  2.9644843168704664e+01  1.0701653394871866e+02  6.2581854112428812e+02  6.2147098669422962e+02  6.2581367457371391e+02  2.4850095061365695e+02  2.5624178480087863e+02  2.5421456524594976e+02  2.5052662411725612e+02  3.8495562848363835e+02  3.9234149896226160e+02  3.9030911878814885e+02  3.8698734386688488e+02  5.0513600645029049e+02  5.1031254945491992e+02  5.1683726348110440e+02  5.1624102228598326e+02  7.2973717573817680e+02  7.2130070362774086e+02  7.2729219566451115e+02  7.2484797521219252e+02  7.2374757876110573e+02  7.2973654606212472e+02  7.2130588555713882e+02  7.2729259444749505e+02  7.2375280313882638e+02  7.1513175554155146e+02  7.1512289785651399e+02  1.7411210303238542e+02  1.6869920478704157e+02  1.7200073820606144e+02  5.8567633573986507e+02  5.8006558410615742e+02  5.8348871682999209e+02  6.3012084545070320e+02  4.4461986991275216e+02  4.5311324625598081e+02  6.3012469825887445e+02  4.4885148764098278e+02  4.4461481541538529e+02  4.4885983982085941e+02  4.5310413124717024e+02  3.1163837469466324e+02  3.1758885893131446e+02  3.1607284998919511e+02  3.1315389247767069e+02  3.6755213388997868e+02  3.6133805417744418e+02  3.6813927182016482e+02  1.9438304998807976e+02  1.9381660453440972e+02  2.0049782202903094e+02  2.3126316016395410e+02  2.2512888754788676e+02  2.3184767010779905e+02  3.3021440405221244e+02  3.2402119045172333e+02  3.3080382069347991e+02  4.8266170252291019e+01  4.2236746932335400e+01  4.8840427056705479e+01  8.4591643038402523e+01  8.4031146756562237e+01  9.0644799950019262e+01  1.2108913046542152e+02  1.1502005727294842e+02  1.2166795189508414e+02  1.5766552465297792e+02  1.5710061539441404e+02  1.6376159220112285e+02  5.6863240851934972e+02  5.6804590145742736e+02  5.7495086374750804e+02  6.0668950025338256e+02  6.0610192435597310e+02  6.1302889122973249e+02  5.3073969770555163e+02  5.2444040047031854e+02  5.3133510148477876e+02  2.5577554203917916e+02  2.5006236482750742e+02  2.5161779995018179e+02  3.9195368739942944e+02  3.8659985212384152e+02  3.8824019821423269e+02  3.4756958590435710e+02  3.4354541130747145e+02  3.4804396861221994e+02  3.4307116121672902e+02  3.4709590339684178e+02  5.4923992358601220e+02  5.4470531118373776e+02  5.4969282614688973e+02  5.4424801474397805e+02  5.4879143898229609e+02  5.5014723077470012e+02  5.5468011052636416e+02  5.5513660049466239e+02  5.5060308537996343e+02  3.5476041403899342e+02  3.4995379327806779e+02  3.5285010485628817e+02  2.5703682079271528e+02  3.9409336206746235e+02  2.5420822990101293e+01  2.7000636448090557e+02  4.0671164135284801e+02  6.6877600337316017e+02  4.9110478554640571e+02  2.5377076034083643e+02  3.9038818519974620e+02  3.0514453147051688e+02  3.0662426496285275e+02  3.1016047331762445e+02  4.2113335126405724e+02  4.2841331259714696e+02  4.2168245297487965e+02  6.5402414963195304e+02  6.4659632120353456e+02  6.5346976228627523e+02  4.7649160628940905e+02  4.6924923947258588e+02  4.7600951177399361e+02  2.8440590562611538e+02  2.9152616379571646e+02  2.8487426419872594e+02  1.3938782316011333e+02  1.4420989004681707e+02  1.3939874140172449e+02  1.4419912918985554e+02  1.3937674059278612e+02  1.3457626693600184e+02  1.3456506290532104e+02  6.6439204032702875e+01  7.1229010104269364e+01  6.6449868893054173e+01  7.1218339486793568e+01  6.6428537343870573e+01  6.1659804089365451e+01  6.1649184824140960e+01  7.1867272165696829e+02  2.9306750597622636e+02  2.9255292189602199e+02  2.9923985102838441e+02  6.4491622578405065e+02  6.3855802162899636e+02  6.4545603835034274e+02  4.6769199735257996e+02  4.6142817135346695e+02  4.6821827236881188e+02  4.3003915865980724e+02  4.2951943497186647e+02  4.3628298682402345e+02  3.5562814777106342e+02  3.5183543689461419e+02  3.5136176802494930e+02  5.5718513312916684e+02  5.5343839514274680e+02  5.5298692832008828e+02  5.4220502581252367e+02  5.4594877657600307e+02  5.4640285020410931e+02  1.7695047610233183e+02  1.7083666081695776e+02  1.7225594079217370e+02  1.7553269304624536e+02  5.8861668059147848e+02  5.8228028033970247e+02  5.8375053504421010e+02  5.8714783170482633e+02  0.0000000000000000e+00  0.0000000000000000e+00  4.6984682900604593e+00  7.4753620049558413e+02  7.4753620049558413e+02  7.4265154562021030e+02  7.4753620049558413e+02  0.0000000000000000e+00  2.7084695214552988e+02  4.0754542524634940e+02  6.6815085595736764e+02  4.9035350400556865e+02  7.3371545902517812e+02  7.3375083193759463e+02  7.3371766357403578e+02  7.3375201131946346e+02  3.6749308503724798e+01  3.1107725993312908e+01  3.6502525230392266e+01  3.6275432536708166e+01  3.1362367648698772e+01  2.5968331365869364e+01  2.7883574649185738e+02  2.7893602216213662e+02  4.1556750308621650e+02  4.1566590688330024e+02  4.8217289424119781e+02  4.8205803191925145e+02  6.5992261732391967e+02  6.5874872158206244e+02  2.4586961983939045e+02  2.4431389412124236e+02  3.8237120212901414e+02  3.8073296869771946e+02  2.4091389649583526e+01  2.5046707184566969e+01  3.0175113773560629e+01  1.3190759115443585e+01  1.3226363920450588e+01  1.7991175238888664e+02  1.8132797443764201e+02  5.9168755058524994e+02  5.9315483038688762e+02  1.6458788299491054e+01  1.2837168717594515e+01  1.2927549748929877e+01  1.7812703811738871e+02  1.8392905468086806e+02  1.8217323037041774e+02  5.8983845695654725e+02  5.9585221761939806e+02  5.9403139566957168e+02  2.8177511472647478e+02  2.7761965403299592e+02  2.7670334603618448e+02  4.1877557796961014e+02  4.1448611198576265e+02  4.1356582743424775e+02  4.7898069576265510e+02  4.8330251714451657e+02  4.8421931309717849e+02  6.5683268619640944e+02  6.6015295545865217e+02  6.6195862050905009e+02  2.4758865422081854e+02  2.4184539783259879e+02  2.4353624072990519e+02  3.8412946982203715e+02  3.7826467939004743e+02  3.8000235781390114e+02  2.3593970509411406e+01  1.7564225966918055e+01  1.8071199043233310e+01  5.9401974341801053e+02  5.8741320206753778e+02  5.8471154541155829e+02  5.8080920065972384e+02  5.9131855852604122e+02  1.0287942677277110e+02  1.0617708077326606e+02  1.0948967927465246e+02  9.9567621092422982e+01  9.6272515615570342e+01  2.1885818182045833e+02  2.1251425926025121e+02  2.0950564307362123e+02  2.0617513661158176e+02  2.1584872596992062e+02  1.3336279449537406e+02  1.3937706996586110e+02  1.4239618270975944e+02  1.4539598225772434e+02  1.3638072456352501e+02  6.0453752446945970e+01  6.6428705107378818e+01  6.9427542827170043e+01  7.2407834970180772e+01  6.3451789500911424e+01  1.8216343449578326e+02  1.7318358114777044e+02  1.7955740171732148e+02  1.7579003910490442e+02  1.6941889541468097e+02  2.4206423330854037e+02  2.4528448325578324e+02  2.4730259117191417e+02  3.7883293498896455e+02  3.8189555221381988e+02  3.8392166434197821e+02  5.1951225291450089e+02  5.1565260527577732e+02  5.1417435700232897e+02  3.0423634569052194e+02  3.0793828268702623e+02  3.0945057592019407e+02  3.4212921912102439e+02  3.4508833345588704e+02  3.4699690255979431e+02  3.1354089812386945e+02  3.1501602989309407e+02  3.1839547326305126e+02  4.4232132945113830e+02  4.5221304045329782e+02  4.4558562853905710e+02  4.4894724875815973e+02  4.5557523619252163e+02  6.3248406297310839e+02  6.2569380587098283e+02  6.2236243570832403e+02  6.1890898536475925e+02  6.2915184844384635e+02  2.3324699036794470e+01  2.8067333454931575e+01  2.3627801965480904e+02  2.3799515842102790e+02  3.3521986341479800e+02  3.4083866060333219e+02  3.3700952752310474e+02  3.4261515711089970e+02  1.2599983072579477e+02  1.3150768372391389e+02  1.2775083145921620e+02  1.3323977895113592e+02  5.3581802757757248e+02  5.4154840982714541e+02  5.3763963422423205e+02  5.4335051476405260e+02  1.5277832515109154e+02  1.4724430303835362e+02  1.5099968879259089e+02  1.4548681279062725e+02  6.0160558789682864e+02  5.9975924057632517e+02  5.6356375088430570e+02  5.5782882856149240e+02  5.6172275114707770e+02  5.5601600420179591e+02  7.9739882033440480e+01  7.4242903827730757e+01  7.7972603408202929e+01  7.2497722364755859e+01  5.3141753563186661e+01  5.8612878184199253e+01  5.4881828954254509e+01  6.0333564094043112e+01  1.8947971119534927e+02  1.8769811988258763e+02  3.7261292349453333e+02  3.7435657723315973e+02  4.2326575357135960e+02  4.1934471941736882e+02  4.1757848813699985e+02  4.2506183604103995e+02  4.7448349269713378e+02  4.7838204933381820e+02  4.8024920880069578e+02  4.7261457476523293e+02  6.5182424381684177e+02  6.5584891311173919e+02  6.5763894650124155e+02  6.5000908468502257e