<?xml version="1.0"?>
<VTKFile type="UnstructuredGrid"  version="0.1"  >
<UnstructuredGrid>
<Piece  NumberOfPoints="2690" NumberOfCells="4864">
<Points>
<DataArray  type="Float64"  NumberOfComponents="3"  format="ascii">-5.096159348011335 22.02099532629517 0  -5.682276146333741 21.28367852429353 0  -5.094285962503567 21.52271104980816 0  -5.09200986285929 21.0210764260759 0  -5.684200498462144 21.78407243039827 0  -6.2721728587047 21.54376472749875 0  -9 21.99999999996945 0  -8.410917561658078 21.26688754571762 0  -9 21.49999999997139 0  -9 20.99999999997333 0  -8.411258550942513 21.76686328207835 0  -7.822198150722312 21.53367074600932 0  -9 32.9999999999446 0  -8.4183548133802 32.26681833608264 0  -9 32.49999999994358 0  -9 31.99999999994255 0  -8.41869507735281 32.76682519098224 0  -7.837068689593258 32.53359941098749 0  -5.145478972900106 33.02267406265513 0  -5.643749418203194 32.31880019152336 0  -5.143534478457138 32.52569818722095 0  -5.141071665649409 32.02193878090377 0  -5.645748626569937 32.81938659265819 0  -6.145944734631097 32.61283431637132 0  -5.241623982709895 54.02157459791231 0  -5.811114551330138 54.7580609807429 0  -5.809209965063221 54.25896832085979 0  -6.376445570149339 54.49320170220093 0  -5.243910172331712 54.52321020813035 0  -5.245834696452087 55.02176521151551 0  -9 54.99999999998974 0  -8.50209274423135 54.29981044393597 0  -9 54.49999999998872 0  -9 53.99999999998769 0  -8.502397351915262 54.79971802623277 0  -8.004554402179686 54.59946638715819 0  -9 39.99999999995897 0  -8.424136576141928 40.74174589566132 0  -8.423796074478817 40.24175116879313 0  -7.847918118429837 40.48343794463266 0  -9 40.49999999996 0  -9 40.99999999996102 0  -5.181662185418361 41.02000943339775 0  -5.729368494587257 40.28938844418636 0  -5.179729444017553 40.52329186657869 0  -5.177471170401286 40.02255344704867 0  -5.73129341195266 40.78904953372311 0  -6.280922041028928 40.55440197123952 0  -9 55.99999999999179 0  -8.458349784865726 56.74725237284644 0  -8.458049532369431 56.24719354549087 0  -7.916413236117453 56.49438722619164 0  -9 56.49999999999282 0  -9 56.99999999999384 0  -5.250862090811526 56.02057431029989 0  -5.795659757179036 56.76399129827422 0  -5.793795345700386 56.26390053187453 0  -6.336307231238531 56.50461645889315 0  -5.253289700016397 56.52390561521047 0  -5.255210134827461 57.02184340003188 0  -7.512112552389518 43.01189702348683 0  -6.705047397407628 43.12676096404227 0  -7.285674622068938 43.35125498435931 0  -7.059409489429012 43.69062794235101 0  -6.931303487534826 42.78727123880057 0  -6.350197844516071 42.56265585055218 0  -6.695212857958417 49.02250173344044 0  -7.496726484955329 48.90637150580142 0  -6.919852557982233 48.68298707619935 0  -7.14470154322536 48.3434022614202 0  -7.271899078817101 49.24584322486827 0  -7.848256138654877 49.46934495874476 0  -6.686967223172049 46.02112866826983 0  -7.491350629661293 45.90547865656961 0  -6.912455469702922 45.68135915696773 0  -7.138135318116378 45.34169893398403 0  -7.265682261275356 46.24512136807447 0  -7.844094888230952 46.46903562064847 0  -6.580685554783114 7.021843016944354 0  -7.422042168026974 6.906048167490045 0  -6.816581822389472 6.682316239064051 0  -7.052670961066599 6.342794039116077 0  -7.185964813512025 7.245565877978406 0  -7.790943738507139 7.469274403659856 0  -7.489168619437905 30.0117637832918 0  -6.669644592301923 30.12646013812543 0  -7.259242034824853 30.35079584107089 0  -7.029495493879145 30.68975304788167 0  -6.899391669125775 29.78735700740398 0  -6.309306371051703 29.56307049819993 0  -6.572969620761683 4.020787717478243 0  -7.41741068739901 4.121735000421415 0  -6.811190756964573 4.356274088995834 0  -7.049262420893588 4.691692984357124 0  -7.179349273379085 3.786275038033492 0  -7.78598763610074 3.551897011261825 0  -6.588628217329744 10.02202357903337 0  -7.427585364276458 10.12256168177246 0  -6.82535033202856 10.35723529598497 0  -7.061913187390247 10.69244859172354 0  -7.191006191570104 9.787371213502148 0  -7.793696810658304 9.552691231064312 0  -6.596593435268097 13.02222761456195 0  -7.432401593153728 12.90635762909474 0  -6.830919740022516 12.68270811432079 0  -7.065437678479307 12.34319497677734 0  -7.19788660250724 13.24590181811211 0  -7.7988896722593 13.46951566546218 0  -6.604619202580883 16.02256694392525 0  -7.437651975972194 15.90645883566722 0  -6.838157090964366 15.68307312819093 0  -7.071893300118332 15.3435238664073 0  -7.203934222635244 16.2459266918571 0  -7.802935072297167 16.46941327524514 0  -6.612947287446259 19.0202159361464 0  -7.443473752901549 19.12114398319077 0  -6.847385006524891 19.35505923600931 0  -7.081623332552809 19.69003083102309 0  -7.209216411900271 18.78610529550491 0  -7.805821071522733 18.55193700606688 0  -6.634819222165731 27.01946258963008 0  -7.457741500548077 27.12067323843393 0  -6.867071858141376 27.35473429268789 0  -7.099154422614246 27.69003704747591 0  -7.225658437182325 26.78524942745227 0  -7.816798046984906 26.551213846239 0  -8.284330369509432 19.0998557919118 0  -8.045153696564389 18.82586304666609 0  -8.402720239963802 18.27602753888818 0  -8.641933961783575 18.550020669718 0  -9 17.99999999998495 0  -8.290894551821394 27.09961868229849 0  -8.053920454276874 26.82541901889137 0  -8.408216072972419 26.27558722639771 0  -8.645225208144211 26.5498052584697 0  -9 25.99999999995395 0  -8.281679855068017 15.91279487782205 0  -8.042231356998991 16.19111605660855 0  -8.401652379305554 16.73465941786544 0  -8.641063827767619 16.45636309072755 0  -9 16.99999999998883 0  -5.839420340705646 30.11961362602391 0  -6.074283250936372 29.84132026024941 0  -5.718744448775479 29.29702290007345 0  -5.483880017653705 29.57630965407522 0  -5.127208870193964 29.02100321614117 0  -8.279261782240336 12.91278498020652 0  -8.039001418948583 13.1911459322352 0  -8.39962335755412 13.7347670215477 0  -8.639849829746804 13.45640269795656 0  -9 13.99999999999401 0  -8.277025397901751 10.10052039750663 0  -8.035433136857026 9.826606632898558 0  -8.396667920185131 9.276342262470111 0  -8.638296953855418 9.550256055747422 0  -9 8.99999999999857 0  -8.272363377172676 4.100128982483439 0  -8.02924003302601 3.826030391896221 0  -8.392849729164681 3.275918082986318 0  -8.63599254119338 3.550021004593837 0  -9 2.999999999998668 0  -8.274501952404682 6.912630147188566 0  -8.032648863044134 7.190948125049084 0  -8.395649594026034 7.73464334428042 0  -8.637467781406484 7.456327871755998 0  -9 7.999999999999485 0  -8.306367561107084 45.91236759148906 0  -8.075156179235327 46.19067671356495 0  -8.422229913434713 46.73455690856389 0  -8.65340525365 46.45625004453267 0  -9 46.99999999997333 0  -8.308841792125675 48.91274284436888 0  -8.078469906663106 49.19105616262817 0  -8.424319081180778 49.73462285396774 0  -8.65465274565906 49.45634034774795 0  -9 49.99999999997949 0  -5.887482961841044 43.11987343073224 0  -6.11875849332387 42.84126222021227 0  -5.76861613717966 42.29631748695238 0  -5.537349716464149 42.57604083294389 0  -5.186013621216437 42.0201315052126 0  -5.812223120757854 23.94228168902341 0  -6.055339163534085 24.20774017251264 0  -5.704004464096529 24.75203255257244 0  -6.298293330675924 24.47327056931402 0  -5.461031267459692 24.48756905813621 0  -5.109671728133579 25.020824072394 0  -8.316032384505315 52.08956215517032 0  -8.081403522298002 51.82397230580975 0  -8.423109959622888 51.27928070196423 0  -7.84661714668031 51.55844246999568 0  -8.657782704746669 51.54486936015864 0  -9 50.99999999998153 0  -5.864360946760876 38.10935608865931 0  -6.10168613626341 37.83921182547645 0  -5.751736232142718 37.29961208608231 0  -6.339167683021786 37.5691284357632 0  -5.514407568065174 37.57096354434966 0  -5.163242066815693 37.01919210761774 0  -5.852629195306667 34.94208116569338 0  -6.092694641347937 35.20738793782609 0  -5.745868778549688 35.75141401223902 0  -6.332598711303485 35.47276168237875 0  -5.505932422679706 35.4872556618778 0  -5.159115721983115 36.01981974778505 0  -7.946507810272736 50.50995291966205 0  -7.896527235551928 51.03422469754461 0  -8.473416532981885 50.75492069402851 0  -6.232906361934494 36.52072436638794 0  -6.28605997953715 37.04479654342329 0  -5.698227234581481 36.77366347876013 0  -6.282720040535735 35.99659877167124 0  -5.696270962829636 36.27341145519097 0  -6.060643316791533 25.28276547020504 0  -6.179425216370264 24.8780603884974 0  -5.585379207223691 25.15563927804308 0  -8.055010070104609 25.75336516633265 0  -7.935849754050871 26.15228870196393 0  -8.527572293913204 25.87668616280778 0  -7.020540799677658 34.39122860529848 0  -6.676348145888113 34.93212056413546 0  -6.924175823767325 35.25459780499791 0  -7.268397568551331 34.71388311227668 0  -7.516063446712743 35.03649970198151 0  -7.171702728995418 52.63938589150891 0  -7.508926271476447 52.09902881399196 0  -7.266175600784641 51.77687808951665 0  -6.928974286454284 52.31730219038198 0  -6.686045293814931 51.99527800343109 0  -7.030440767660815 38.63928649811935 0  -6.685026520724792 38.10432984845222 0  -6.930340989793141 37.77773855773901 0  -7.275735109288434 38.31288457152649 0  -7.521218065914922 37.98643499284891 0  -6.995149778428384 23.39134059529465 0  -6.646504180382632 23.93238362605887 0  -6.897486787082274 24.25495760868138 0  -7.246165105410056 23.71406385159611 0  -7.496992007416093 24.03672808349274 0  -7.905098316821035 17.50984798648772 0  -7.855425782028232 18.03092423241979 0  -8.452707813781386 17.75486702183842 0  -7.85404540828351 16.9896421121511 0  -8.452390798172763 17.25495571978567 0  -7.89406880495245 8.510071157190136 0  -7.843855031005167 9.031383243750541 0  -8.447183702911436 8.755037740616757 0  -7.934337319257399 2.424348128665796 0  -7.860103265740262 2.988096157403233 0  -8.467308655267914 2.712203312892123 0  -7.842536177542081 7.989678283912297 0  -8.44688120120027 8.255028513307934 0  -7.897412712460125 49.98966143315396 0  -8.47308981547976 50.25501003549482 0  -6.163899263885126 41.61344268925238 0  -6.257104131313922 42.08814433299602 0  
[...]
<PointData  Scalars="f_29"> 
<DataArray  type="Float64"  Name="f_29"  format="ascii">3.1518872842943051e+02  3.0425142128579978e+02  3.0775212352700805e+02  3.0033129899717369e+02  3.1164391018760125e+02  3.0811006386126593e+02  3.1504427390189824e+02  3.0411300366511676e+02  3.0760569335287687e+02  3.0017789563174603e+02  3.1150771404307272e+02  3.0802716686761664e+02  4.7953180202078238e+02  4.6829557185850092e+02  4.7188489810397965e+02  4.6425126880570332e+02  4.7589721691715420e+02  4.7231629693904733e+02  4.7963581247915840e+02  4.6894011576829217e+02  4.7202406617347481e+02  4.6443773624383738e+02  4.7652696130651316e+02  4.7342246755291569e+02  8.0629297248704142e+02  8.1818536078447221e+02  8.1016557632939259e+02  8.1395567917643234e+02  8.1434411219698904e+02  8.2243283962361352e+02  8.2227016639485282e+02  8.1099282829247727e+02  8.1424090967234883e+02  8.0621249216438582e+02  8.1901167247400110e+02  8.1576938071045595e+02  5.8645589751218790e+02  5.9797286875716543e+02  5.9022068347628999e+02  5.9393056727357850e+02  5.9425553849730693e+02  6.0204705674971297e+02  6.0218626265977093e+02  5.9081122999305978e+02  5.9440350006224355e+02  5.8661152447696759e+02  5.9857619336724406e+02  5.9495731609997961e+02  8.3827223776437290e+02  8.5029733091583250e+02  8.4224835146410726e+02  8.4618436624233027e+02  8.4633332125535549e+02  8.5443648398769301e+02  8.3840596018398912e+02  8.5039992496047978e+02  8.4235628076847331e+02  8.4625042865011483e+02  8.4645871731605553e+02  8.5456540759167729e+02  6.3307963395595812e+02  6.3478527622256240e+02  6.3832925065836946e+02  6.4358558707378450e+02  6.2954265411203380e+02  6.2600544122950794e+02  7.2693826489813796e+02  7.2519627558510899e+02  7.2161390766406032e+02  7.1629429711354680e+02  7.3052627846424207e+02  7.3410974196803659e+02  6.7986144247108632e+02  6.7813041726621100e+02  6.7458331828804137e+02  6.6930680238403568e+02  6.8341542190671100e+02  6.8696611496648302e+02  9.8230360624623941e+01  9.6656871846966666e+01  9.3445849175571666e+01  8.8664575474854317e+01  1.0144696510994186e+02  1.0465932222549546e+02  4.3416001607819271e+02  4.3581380968221151e+02  4.3924904007260722e+02  4.4434562445080644e+02  4.3073444753897689e+02  4.2730964739226187e+02  5.5927560493750711e+01  5.7416297328159374e+01  6.0659223932260289e+01  6.5392798485272309e+01  5.2690427573827485e+01  4.9453572621352258e+01  1.4089364790440246e+02  1.4239978358315750e+02  1.4570190498692025e+02  1.5051143328900383e+02  1.3759613189394989e+02  1.3430180215089700e+02  1.8387948934774045e+02  1.8227898073375283e+02  1.7901790607399727e+02  1.7415952508328164e+02  1.8714528742146655e+02  1.9040764319479160e+02  2.2720063503528999e+02  2.2559384672525900e+02  2.2229952736000880e+02  2.1740306114785790e+02  2.3050043090256429e+02  2.3379559576985883e+02  2.7091634135845453e+02  2.7247870283692390e+02  2.7585667387899076e+02  2.8080217675843841e+02  2.6754802502549342e+02  2.6417717249496928e+02  3.8922024442005448e+02  3.9081301839856309e+02  3.9425477934930217e+02  3.9929284290787467e+02  3.8578712334381038e+02  3.8235024911493826e+02  2.7223328248444932e+02  2.6820630172773912e+02  2.6020686660596016e+02  2.6422099859054481e+02  2.5626097109984897e+02  3.9056680603361843e+02  3.8645860056770107e+02  3.7829668973666992e+02  3.8239253891075759e+02  3.7425952619016158e+02  2.2575481561837231e+02  2.2977411895844347e+02  2.3768658850806935e+02  2.3366047143876798e+02  2.4154051366675199e+02  4.3560098262058335e+02  4.3145800678144570e+02  4.2328043055631252e+02  4.2737648290001306e+02  4.1927537078542019e+02  1.8243342936210865e+02  1.8641939915032373e+02  1.9426073863829069e+02  1.9027708092357756e+02  1.9809702516285574e+02  1.4215258281383919e+02  1.3822811110152190e+02  1.3042523295102262e+02  1.3433790777035532e+02  1.2657493981565854e+02  5.7179023258938770e+01  5.3316573098395523e+01  4.5637592785655784e+01  4.9496903384726821e+01  4.1861644197485631e+01  9.6808599105785106e+01  1.0073293971111222e+02  1.0845355096594267e+02  1.0452333144340776e+02  1.1221067830908946e+02  6.7830653026856260e+02  6.8263516317564392e+02  6.9115924330700659e+02  6.8683237292807121e+02  6.9533519966261701e+02  7.2537584992501252e+02  7.2974168494886896e+02  7.3834102128953759e+02  7.3396842970938008e+02  7.4253673722423923e+02  6.3456898846930767e+02  6.3028964639864523e+02  6.2184458156294238e+02  6.2607696830756242e+02  6.1771505315219906e+02  3.4337927255284632e+02  3.4735258146297753e+02  3.5541400504130149e+02  3.5132380899846038e+02  3.5140379842095751e+02  3.5949298923723364e+02  7.7569526647690191e+02  7.7145453274752083e+02  7.6284957748371596e+02  7.6721282040555536e+02  7.6707718046519096e+02  7.5851008476525806e+02  5.5711326135643264e+02  5.5301264559740093e+02  5.4475605526483196e+02  5.4890932859896475e+02  5.4880216412810353e+02  5.4063635306352910e+02  5.0865952786475367e+02  5.1274791081730234e+02  5.2103484204246740e+02  5.1683490627484264e+02  5.1690271910789477e+02  5.2520952338834070e+02  7.5058094204754150e+02  7.5889717646318149e+02  7.5452079482165311e+02  5.3289437965422348e+02  5.4090041681740638e+02  5.3675186932455961e+02  5.2485561933280451e+02  5.2907428037018690e+02  3.6336098317888201e+02  3.5733742953097675e+02  3.6145687111085260e+02  3.7048585994188130e+02  3.7641779973059596e+02  3.7235357295398995e+02  5.0043160621211837e+02  5.0862347969497392e+02  5.1356603644760617e+02  5.0536429723603811e+02  5.1029953729426052e+02  7.8434111187233214e+02  7.7576968965010656e+02  7.7062173113558606e+02  7.7918488980989980e+02  7.7403337916962914e+02  5.6539675129174827e+02  5.5713988600582206e+02  5.5215520927787657e+02  5.6040160438449971e+02  5.5540902824724310e+02  3.3537096749262741e+02  3.4333715722822416e+02  3.4813946648445210e+02  3.4016393435092579e+02  3.4495867989434299e+02  2.4895466687351677e+02  2.5656580135746657e+02  2.5258214116071312e+02  2.4136734431406646e+02  2.4527109052347470e+02  1.1945168623802086e+02  1.2687737815394834e+02  1.2298713196462158e+02  3.3666524572677389e+01  4.1560643757661666e+01  3.7742841755998597e+01  1.1204812013032812e+02  1.1585411198701637e+02  7.4233749444742830e+02  7.4658140492764039e+02  6.1133790568592678e+02  6.1866851550081617e+02  6.1451471530168669e+02  3.5484976550455161e+02  3.5308919206388254e+02  3.4990049482185208e+02  7.6132974061706398e+02  7.6427094134296192e+02  7.6767985687987868e+02  5.4321077801157230e+02  5.4606139221498165e+02  5.4930539191482262e+02  5.2251501132633075e+02  5.1967746327838358e+02  5.1640257143509234e+02  4.1528742716943140e+02  4.2129596577074898e+02  4.1727094118752143e+02  6.4416693798199390e+02  6.3506934022182884e+02  6.4387879210007804e+02  7.1570183645834504e+02  7.2489790723789906e+02  7.1599924717930708e+02  6.6871107080515480e+02  6.7783249728896067e+02  6.6901015020171189e+02  8.8122872475885259e+01  9.6384079573541584e+01  8.8395705580937346e+01  6.5854086339883779e+01  5.7648640768504535e+01  6.5625670070117224e+01  4.4502579801025547e+02  4.3614940223402130e+02  4.4468918996985963e+02  1.5097452957124537e+02  1.4263334806087454e+02  1.5074506353920918e+02  1.7360733518357029e+02  1.8200133730764841e+02  1.7388532956304329e+02  2.1685381073019130e+02  2.2531726696756002e+02  2.1712966397348168e+02  2.8140575409345371e+02  2.7278334459019374e+02  2.8110815170623562e+02  3.9979161951669317e+02  3.9106373199991066e+02  3.9954466255640313e+02  3.7751582794590706e+02  3.7993267259610667e+02  3.8336609681811973e+02  2.5884716695116208e+02  2.6151215165007505e+02  2.6487940721367130e+02  2.3905459758538694e+02  2.3642653791530671e+02  2.3312532165964524e+02  4.2223974964251261e+02  4.2477690234154238e+02  4.2819631045012392e+02  1.9546426677886930e+02  1.9293667382939523e+02  1.8966950113840804e+02  1.2921426776861171e+02  1.3175842108879641e+02  1.3505093385747696e+02  4.6287563888376859e+01  4.7871328465277600e+01  5.1105909685928488e+01  1.0979553551492175e+02  1.0722880190944349e+02  1.0401003230887196e+02  6.2075388483009840e+02  6.2338088596407181e+02  6.2691408181769339e+02  7.3981994628978805e+02  7.3696633060777833e+02  7.3337660121348233e+02  6.9245321763476841e+02  6.8971031508068972e+02  6.8615440524788335e+02  6.0314865943172981e+02  6.0676070478071381e+02  8.3038974770833556e+02  8.2217506983216686e+02  8.2637272878919975e+02  8.3031706107436366e+02  8.2304218328208663e+02  8.2628945419347178e+02  8.3824953142487948e+02  8.3429381670014823e+02  8.3832070858803195e+02  8.3439793856203255e+02  1.9701540418643773e+01  2.8788556905431616e+01  2.1806653852128044e+01  2.3908097367822979e+01  2.6678132573356660e+01  8.9044849546355283e+02  8.9049817939075501e+02  8.9668189139882929e+02  8.9054488695685950e+02  8.9663637680835882e+02  9.0282851730204970e+02  8.9045067862355506e+02  8.9050195462077761e+02  8.9668438037995884e+02  8.9663813481604711e+02  9.0282851730204970e+02  8.6541354294144776e+02  8.5579459591130637e+02  8.5991043141343403e+02  8.6546202216964491e+02  8.5585869045339041e+02  8.5999688824648888e+02  1.0771519215566551e+01  1.0815600071668431e+01  5.4257442384798393e+00  1.0856171584208132e+01  5.3848786429188511e+00  0.0000000000000000e+00  3.2007215274592897e+02  3.1460755340229207e+02  3.2118631161854836e+02  3.1349361494024981e+02  3.1896507732329422e+02  4.8469188560527999e+02  4.7907164032182891e+02  4.8582643707934125e+02  4.7793741760417242e+02  4.8356365268428806e+02  5.8132610188764772e+02  5.8707047766368032e+02  5.8021326307630602e+02  5.8817921157910359e+02  5.8242960560896427e+02  8.0206531578447459e+02  8.0801438117793100e+02  8.0573256465092902e+02  7.9979944309297014e+02  7.9752230910698211e+02  1.0644762520359981e+01  1.0752125154290198e+01  5.4268249474007852e+00  5.3192314208808877e+00  0.0000000000000000e+00  2.9626032827589830e+02  3.0218814597125203e+02  2.9831851802470123e+02  4.6012554437857904e+02  4.6622003735539403e+02  4.6220015890427453e+02  6.0618327296589155e+02  6.0005543076782624e+02  6.0410402606073171e+02  8.2215972277693493e+02  8.3038402933084842e+02  8.3036703961549779e+02  8.3827270354413179e+02  8.3034606207306615e+02  8.3830491074875397e+02  8.2306576285522704e+02  6.0240203620335797e+02  6.1059177123308848e+02  6.0984622195284851e+02  3.0503854625905194e+02  3.0653193508695495e+02  3.1311393661830976e+02  3.0657340612930864e+02  3.1464582464102199e+02  4.6820903824401069e+02  4.7026172169370597e+02  4.7701738688183286e+02  4.7081645092596631e+02  4.7962082095507515e+02  8.1128436304933257e+02  8.1262287730880439e+02  8.0440087138305478e+02  5.9715200694315990e+02  5.9605558790558325e+02  6.0350006189599696e+02  5.8757715467640708e+02  5.8867842689093516e+02  5.9554389170310492e+02  8.4478475242634602e+02  8.4551934797145202e+02  8.3757409657154619e+02  8.4548647096723687e+02  8.5251464207788649e+02  8.5181233047801538e+02  8.5883963785232334e+02  8.1352780829222672e+02  8.2082269653783169e+02  8.5254519718875304e+02  3.2097049542324066e+02  3.1454544545682080e+02  3.2107860588856454e+02  4.8560931168689888e+02  4.7951800939199859e+02  4.8571846498592390e+02  5.8051278631640230e+02  5.8773457278278102e+02  5.8037117673962655e+02  2.5390238468516310e+02  2.4400050403756899e+02  1.2433415061827759e+02  3.9977514668938767e+01  1.1461986789066660e+02  7.4519658890517826e+02  8.0586087277011143e+02  7.9898506055645475e+02  8.0043847122707666e+02  8.0810022921815619e+02  2.4899641211026810e+02  2.4402371590845732e+02  2.4897756289753769e+02  2.5392056560406664e+02  1.1949760602700130e+02  1.1464489814729698e+02  1.1947666814812031e+02  3.4887069041405695e+01  4.0587182948009911e+01  3.4279605504155079e+01  1.2435472099344928e+02  7.5062086123467157e+02  7.4521834082276473e+02  7.5060290417406111e+02  2.9140773847215382e+02  3.0065560789243091e+02  2.9822233678506035e+02  2.9383861262984470e+02  4.5523691719259216e+02  4.6416913094019202e+02  4.6172180205196901e+02  4.5768424897239890e+02  6.0166354702788431e+02  6.0801259632010817e+02  6.1604146685613364e+02  6.1530031879184082e+02  8.8045136634661196e+02  8.6986604084025976e+02  8.7738567135144308e+02  8.7432121385624089e+02  8.7293109897979241e+02  8.8045302679940187e+02  8.6988275270227234e+02  8.7738854785853687e+02  8.7295034686409372e+02  8.6214843047638556e+02  8.6212263113519418e+02  2.0315746151329046e+02  1.9677814008496665e+02  2.0065111204139214e+02  7.0082126189137534e+02  6.9388883651008700e+02  6.9810144826270346e+02  7.5595650479725180e+02  5.2769612240125991e+02  5.3804871405411188e+02  7.5597421848890656e+02  5.3284156844092900e+02  5.2767820621031285e+02  5.3286518628751219e+02  5.3802636211628499e+02  3.6687537351667100e+02  3.7400109300264751e+02  3.7219558838115279e+02  3.6867990454853958e+02  4.3419682317462309e+02  4.2668820143668614e+02  4.3491003242757063e+02  2.2707308728845877e+02  2.2641585025519129e+02  2.3431225279370523e+02  2.7082317492190339e+02  2.6353017081956790e+02  2.7153013515206476e+02  3.8913113221500055e+02  3.8168705820739979e+02  3.8985103846243800e+02  5.5826216212301098e+01  4.8831900122261715e+01  5.6504735512927603e+01  9.8093439004973604e+01  9.7452304189795171e+01  1.0515856156675065e+02  1.4077315351689526e+02  1.3366283319262843e+02  1.4146468112028487e+02  1.8374047634282701e+02  1.8308856376065464e+02  1.9092158713133094e+02  6.7973320721224934e+02  6.7902164476916596e+02  6.8753651836817608e+02  7.2681185726329022e+02  7.2609589593178487e+02  7.3467941259605595e+02  6.3311768608563648e+02  6.2536800301413177e+02  6.3385470006756032e+02  3.0006715726716965e+02  2.9325535337808481e+02  2.9509340366951886e+02  4.6372684703733387e+02  4.5724180862981052e+02  4.5923983337654727e+02  4.1005984168839808e+02  4.0521703488127872e+02  4.1064738908511436e+02  4.0463032176412236e+02  4.0947316180075285e+02  6.5590326839341333e+02  6.5030904227982387e+02  6.5644151036356038e+02  6.4976222131722943e+02  6.5537734536034918e+02  6.5698336791650763e+02  6.6257418490439159e+02  6.6311899057386916e+02  6.5752734327319706e+02  4.1875996483904390e+02  4.1296412921519800e+02  4.1644319971400728e+02  3.0155886732313547e+02  4.6633066862000715e+02  2.9395507221321886e+01  3.1701109742011698e+02  4.8155463612454781e+02  8.0418062646838052e+02  5.8443913646794738e+02  2.9764574893085683e+02  4.6185168677613348e+02  3.5909994059789642e+02  3.6086159142251864e+02  3.6511795405995127e+02  4.9910892086718115e+02  5.0795514663647344e+02  4.9977203863868237e+02  7.8571235559128138e+02  7.7645474239674877e+02  7.8503122121150386e+02  5.6659216686211005e+02  5.5773445289396466e+02  5.6599822595714090e+02  3.3426218041660928e+02  3.4277707211214619e+02  3.3481851246455091e+02  1.6228841313943119e+02  1.6796136064696506e+02  1.6231930836607788e+02  1.6793070917193023e+02  1.6225709376284527e+02  1.5664508309330637e+02  1.5661351195646770e+02  7.6984297108419995e+01  8.2565975286484530e+01  7.7012409491891631e+01  8.2537551823751869e+01  7.6955817921723920e+01  7.1430805797580064e+01  7.1402744355893390e+01  8.6657941392398982e+02  3.4462601485968850e+02  3.4401383500927381e+02  3.5201983542755835e+02  7.7432759186489500e+02  7.6640743088736610e+02  7.7501180168635540e+02  5.5583621107428576e+02  5.4818098501317149e+02  5.5648252778330937e+02  5.0993724016023032e+02  5.0930858819063400e+02  5.1753820628934182e+02  4.1977059269094514e+02  4.1520727539714284e+02  4.1462072512554653e+02  6.6569715934830242e+02  6.6106943551587813e+02  6.6053206363159757e+02  6.4719404848406134e+02  6.5181651585386840e+02  6.5235879032954915e+02  2.0653648226236567e+02  1.9930928688702656e+02  2.0099868376019680e+02  2.0484983676079025e+02  7.0448530544563584e+02  6.9663575320524899e+02  6.9846725551920099e+02  7.0265602268143925e+02  0.0000000000000000e+00  0.0000000000000000e+00  5.4273066470830731e+00  9.0282851730204970e+02  9.0282851730204970e+02  8.9668494006274830e+02  9.0282851730204970e+02  0.0000000000000000e+00  3.1809172668042038e+02  4.8263793234009057e+02  8.0332903478097251e+02  5.8358361712577016e+02  8.8544745575303750e+02  8.8549597896799389e+02  8.8544982868116665e+02  8.8549741772214361e+02  4.2540095642117734e+01  3.6015971835718311e+01  4.2266320667440866e+01  4.2011998984049384e+01  3.6300305066836721e+01  3.0045486465632532e+01  3.2761399741517954e+02  3.2772422791632385e+02  4.9235794515122575e+02  4.9246728914213719e+02  5.7355135207910155e+02  5.7340108968918241e+02  7.9307054874250298e+02  7.9161635735489449e+02  2.8824495626222335e+02  2.8640464041786316e+02  4.5212936147452336e+02  4.5013383648054605e+02  2.7859328084965849e+01  2.8982148931545350e+01  3.4921223339967156e+01  1.5233152303787422e+01  1.5280403558425315e+01  2.1000519049615514e+02  2.1169118248029534e+02  7.0826065477775296e+02  7.1008964810983775e+02  1.9022114947226189e+01  1.4830422869969338e+01  1.4937568755554718e+01  2.0787823252559883e+02  2.1473289939784115e+02  2.1263919707333832e+02  7.0595325192517600e+02  7.1340010775686278e+02  7.1112387448889547e+02  3.3108819748011081e+02  3.2613450497862016e+02  3.2502513399722528e+02  4.9621632205573553e+02  4.9101883333726715e+02  4.8988802742628258e+02  5.6960984213991594e+02  5.7490920432925452e+02  5.7601897855879690e+02  7.8925092138427681e+02  7.9338661225615124e+02  7.9564912385286334e+02  2.9027529262165012e+02  2.8343578589641510e+02  2.8543441792273205e+02  4.5426662137103227e+02  4.4716589734955835e+02  4.4928688043759297e+02  2.7259018877979702e+01  2.0286617228305683e+01  2.0864937859742206e+01  7.1118924717232335e+02  7.0302007268617774e+02  6.9966756441298810e+02  6.9485606560461201e+02  7.0783797259479877e+02  1.1953942075996252e+02  1.2338422323156360e+02  1.2727086655032168e+02  1.1565543673736258e+02  1.1181719197917171e+02  2.5615682213725904e+02  2.4863482886154503e+02  2.4505656684077138e+02  2.4112319389691609e+02  2.5257690154032542e+02  1.5525748071832086e+02  1.6231759929107292e+02  1.6585213714561451e+02  1.6939064624558117e+02  1.5878790114537864e+02  7.0058557212081610e+01  7.7008722894994392e+01  8.0488123826563893e+01  8.3970346604792894e+01  7.3535094159686551e+01  2.1270839631292878e+02  2.0210650759197250e+02  2.0962350991922403e+02  2.0519286046679636e+02  1.9768215866977320e+02  2.8375351937283136e+02  2.8758351323763111e+02  2.9000250513537549e+02  4.4780507913540134e+02  4.5152225652904565e+02  4.5396219522497955e+02  6.1929379819446899e+02  6.1456751540846255e+02  6.1273964276992001e+02  3.5797599129256827e+02  3.6242630932972992e+02  3.6422664039248724e+02  4.0354553590329613e+02  4.0709840899397057e+02  4.0941540621250061e+02  3.6918652441797542e+02  3.7093980477742974e+02  3.7500411386659061e+02  5.2485809466295382e+02  5.3692665191990818e+02  5.2884866678341257e+02  5.3293362477387063e+02  5.4101565754742444e+02  7.5893190798593139e+02  7.5049030801223284e+02  7.4633771209198233e+02  7.4206123885109571e+02  7.5477725968529467e+02  2.6973660212067504e+01  3.2470266034424995e+01  2.7681750903874291e+02  2.7884511547387444e+02  3.9517836666392270e+02  4.0193174695560521e+02  3.9731638190274003e+02  4.0405656528050781e+02  1.4656265046334062e+02  1.5301174708819588e+02  1.4859688886199694e+02  1.5502614944062631e+02  6.3936890116034544e+02  6.4643862981187726e+02  6.4160554484606314e+02  6.4866162777008833e+02  1.7801999438247930e+02  1.7149776111403204e+02  1.7590775923609093e+02  1.6941232951222963e+02  7.2053932170438316e+02  7.1823274946800063e+02  6.7350850997873022e+02  6.6642423509586763e+02  6.7121929917133343e+02  6.6416888423846535e+02  9.2465674004742340e+01  8.6048058693926478e+01  9.0387432479081369e+01  8.3997757991389634e+01  6.1515537036365309e+01  6.7861116952434543e+01  6.3519459000295363e+01  6.9843817025512720e+01  2.2130466439935427e+02  2.1917981181172172e+02  4.4031378078967322e+02  4.4241733741536325e+02  5.0169260223283209e+02  4.9695201166424266e+02  4.9481791842735873e+02  5.0388145318700185e+02  5.6413211920144749e+02  5.6892061594873405e+02  5.7121859507399904e+02  5.6184933151993835e+02  7.8295008522122691e+02  7.8797473861891081e+02  7.9019664830998954e+02  7.8070139794970282e