<?xml version="1.0"?>
<VTKFile type="UnstructuredGrid"  version="0.1"  >
<UnstructuredGrid>
<Piece  NumberOfPoints="2690" NumberOfCells="4864">
<Points>
<DataArray  type="Float64"  NumberOfComponents="3"  format="ascii">-5.003103658467822 22.00065895668891 0  -5.605676904906661 21.26316667413313 0  -5.003040290800974 21.50071329833857 0  -5.002970369989859 21.00066434226861 0  -5.605736623524875 21.76317825287462 0  -6.208374434310802 21.52559038536828 0  -9 21.99999999996945 0  -8.397328004248752 21.26263801059318 0  -9 21.49999999997139 0  -9 20.99999999997333 0  -8.397338640963822 21.76263721642328 0  -7.79466718681348 21.52527273321263 0  -9 32.9999999999446 0  -8.397562485305563 32.2626358106452 0  -9 32.49999999994358 0  -9 31.99999999994255 0  -8.397573137803542 32.76263598871829 0  -7.795136157887018 32.52527044825801 0  -5.004660762842375 33.00071327060216 0  -5.523671315893696 32.29706411047928 0  -5.004594243397662 32.50080778599676 0  -5.004522749256585 32.00069099815649 0  -5.523732559739975 32.79708226799611 0  -6.042809091651788 32.59334879860771 0  -5.007640224882257 54.00068367197883 0  -5.609694887732711 54.73815089144774 0  -5.609636284627545 54.23817925296213 0  -6.211627222466227 54.47557583637071 0  -5.007705950282666 54.50073081820766 0  -5.007770727609212 55.00068896073613 0  -9 54.99999999998974 0  -8.470950716087835 54.29623061900451 0  -9 54.49999999998872 0  -9 53.99999999998769 0  -8.470959812791389 54.79622787437285 0  -7.941912341708511 54.59245660761444 0  -9 39.99999999995897 0  -8.397743245478633 40.73763379082347 0  -8.39773259747688 40.23763390783025 0  -7.795475321710414 40.47526590310265 0  -9 40.49999999996 0  -9 40.99999999996102 0  -5.005793061192866 41.00063281773362 0  -5.58130739852437 40.26849956000429 0  -5.005727302979257 40.50073440206094 0  -5.005660066276005 40.00071362249211 0  -5.581367354541616 40.76848869520107 0  -6.156948147249823 40.53622896475056 0  -9 55.99999999999179 0  -8.422863124173814 56.74344937004483 0  -8.422854098176257 56.24344766138536 0  -7.845717664340489 56.48689522587811 0  -9 56.49999999999282 0  -9 56.99999999999384 0  -5.007920905604154 56.00065392115639 0  -5.585150203830967 56.74397957131318 0  -5.585091630838123 56.24397686339214 0  -6.162255476163693 56.48721930264728 0  -5.007990472240536 56.50075273373429 0  -5.008054978507637 57.00069086464099 0  -7.439874275179784 43.00037355826987 0  -6.593291950154057 43.10875370345688 0  -7.201753189296075 43.33777398734833 0  -6.963637808622929 43.67517502565791 0  -6.831407605433192 42.77134923740849 0  -6.222930831306968 42.54232483018116 0  -6.566721526945726 49.00070427236902 0  -7.413126922699399 48.89228452054947 0  -6.804787104958574 48.66329880733036 0  -7.042858433872687 48.32589131452075 0  -7.175055915751273 49.22968852363912 0  -7.783380457542092 49.4586778729711 0  -6.56646201109007 46.00066164788078 0  -7.412957863456822 45.89225722802647 0  -6.804553136899423 45.6632487378789 0  -7.042650014990762 45.32583923352946 0  -7.174861424620233 46.22966632227256 0  -7.783250863355121 46.45866844709043 0  -6.563102415454191 7.000687056076184 0  -7.41076700413775 6.892276939907361 0  -6.801522478962053 6.663281168826858 0  -7.039948277132911 6.325875450511434 0  -7.172341658877762 7.229682611342941 0  -7.781570968849229 7.458677584949175 0  -7.439155999355288 30.00036926285298 0  -6.592183812539321 30.10874434743138 0  -7.20092528411871 30.33775963804466 0  -6.9627002945128 30.67514779955914 0  -6.830409152188784 29.77135180428191 0  -6.221652197358771 29.54233784271295 0  -6.562848447950935 4.000654280574705 0  -7.410614564575543 4.108597285215861 0  -6.80134509091047 4.337933216237852 0  -7.039836133398292 4.675209908355479 0  -7.172123881876426 3.77131917545892 0  -7.781407876835128 3.541988497646166 0  -6.563360150897894 10.0006933636985 0  -7.410947045721159 10.10862339927198 0  -6.801807179056312 10.33796353318158 0  -7.040248537678421 10.67523368013419 0  -7.172505332538393 9.771353867511634 0  -7.781660378227998 9.542013638037952 0  -6.563618376684075 13.00069905120507 0  -7.411103308565062 12.89228661583786 0  -6.801987744691057 12.66329338390431 0  -7.040362815696505 12.32588795197793 0  -7.172728601455673 13.2296931273345 0  -7.781828944147539 13.45868513668234 0  -6.563877217069917 16.00070984526445 0  -7.411272046024939 15.89228968546727 0  -6.802221164200576 15.66330493179122 0  -7.040570849253839 15.32589830131708 0  -7.17292269826819 16.22969375935869 0  -7.781958330783399 16.45868171483972 0  -6.564135810269915 19.00063493131581 0  -7.41145294139536 19.10857799424549 0  -6.802507118862775 19.33789385871674 0  -7.040872666595684 19.67515679734482 0  -7.173087033813579 18.77131307388122 0  -7.782048143008951 18.54198931079218 0  -6.56482478969416 27.00061077188129 0  -7.411902203781845 27.10856278612316 0  -6.803128605252866 27.33788313009877 0  -7.041426679106396 27.67515641917024 0  -7.173603730562515 26.77128574115889 0  -7.782392610130954 26.54196630785806 0  -8.269622475570728 19.09408787159677 0  -8.025837694678058 18.81803753802366 0  -8.391018232127973 18.27099651018558 0  -8.634804162088953 18.54704683774029 0  -9 17.99999999998495 0  -8.269829034069041 27.09408022925946 0  -8.026113205347434 26.81802334895151 0  -8.3911904711865 26.27098254886861 0  -8.634907448443192 26.54703999335574 0  -9 25.99999999995395 0  -8.269540037666681 15.90630976734121 0  -8.02574680005028 16.18249612010047 0  -8.390984999563983 16.72933933388735 0  -8.634777091333717 16.45315377752489 0  -9 16.99999999998883 0  -5.734346021397805 30.0947074319153 0  -5.977996553844894 29.81852169609562 0  -5.612879692464307 29.27165267823479 0  -5.369226993301006 29.54786942204083 0  -5.004091500227783 29.00065772490782 0  -8.26946246485025 12.90630955759022 0  -8.025643322582345 13.18249720678211 0  -8.390920308372856 13.72934285806988 0  -8.634738298992279 13.45315510012536 0  -9 13.99999999999401 0  -8.269389883479944 10.09410913096765 0  -8.02552750610992 9.818061415172432 0  -8.39082437296676 9.27100670517518 0  -8.634687893151524 9.547054428731617 0  -9 8.99999999999857 0  -8.26923750133454 4.094096774336312 0  -8.025324876361642 3.81804319844224 0  -8.390699188255958 3.270993276386168 0  -8.634612414998776 3.54704699589033 0  -9 2.999999999998668 0  -8.269307885043677 6.90630471419446 0  -8.02543705842522 7.182491017734976 0  -8.390791296837813 7.729338994155274 0  -8.634660956572326 7.453152760966824 0  -9 7.999999999999485 0  -8.270315163083241 45.90629563502196 0  -8.026780627308499 46.1824812795981 0  -8.391631281807696 46.72933540817517 0  -8.635164656589664 46.45314983012585 0  -9 46.99999999997333 0  -8.270392856126222 48.90630701163767 0  -8.02688427089212 49.18249280555744 0  -8.391696052406235 49.72933737790937 0  -8.635203502027037 49.45315254834343 0  -9 49.99999999997949 0  -5.735849291164683 43.09471533855788 0  -5.97938747254875 42.81851962525425 0  -5.614438416223749 42.27163025263113 0  -5.370898164944306 42.54786045024112 0  -5.005930070028873 42.000631453093 0  -5.72889297778358 23.91713790407454 0  -5.977474987291204 24.18480256926869 0  -5.614787193810553 24.7267198896371 0  -6.226052006480044 24.45246931404868 0  -5.366207562134598 24.45908673254125 0  -5.00353739575238 25.00065660052018 0  -8.275209363860828 52.08386098176578 0  -8.026894730704473 51.8161924856453 0  -8.389281797064005 51.27426472430709 0  -7.778575413643869 51.5485258515377 0  -8.637597763114179 51.54193317842167 0  -9 50.99999999998153 0  -5.730532513946187 38.08448133926785 0  -5.978932269625901 37.81666974727594 0  -5.616288078741591 37.27489985599295 0  -6.227337029269535 37.54886082670373 0  -5.367885960119287 37.54274865541841 0  -5.005221782579634 37.00060190793502 0  -5.73016631186458 34.91713125576998 0  -5.978651686892718 35.18479123987934 0  -5.616105421118198 35.72670051028872 0  -6.227132074565519 35.45245326349649 0  -5.367622032377425 35.45907656232818 0  -5.005094345832771 36.00062809743669 0  -7.885774605065262 50.50048154889303 0  -7.832174032054994 51.02450452808843 0  -8.442892208855948 50.75023903094559 0  -6.120083334428313 36.50065189017766 0  -6.173710978280219 37.02475218826743 0  -5.56265139224978 36.75074433932915 0  -6.173606921344821 35.97654858089409 0  -5.562591685853823 36.25073805988889 0  -5.979395889457423 25.26067731366026 0  -6.102722351255124 24.85657488102384 0  -5.491466733463685 25.13078769105294 0  -8.028382891681805 25.74605221826243 0  -7.905386014851251 26.14400924326022 0  -8.514193630439813 25.87302621401715 0  -6.944827766328366 34.37638381412008 0  -6.585972956053956 34.91442208360492 0  -6.842641528617629 35.23890583072912 0  -7.201497109451183 34.70087289874923 0  -7.458160512072967 35.02536082380409 0  -7.061283404726791 52.62457672882891 0  -7.419922600960475 52.08655476506495 0  -7.163413905257594 51.76208132515834 0  -6.804775449692981 52.30010522229461 0  -6.54826160437845 51.9756356756893 0  -6.945137092519092 38.62457367758507 0  -6.586243983439301 38.08672102266098 0  -6.8428340452204 37.76210862080364 0  -7.201726342876142 38.29996690584193 0  -7.4583215339026 37.97535879936365 0  -6.944027493603488 23.37638751287065 0  -6.585032819542963 23.91443055819123 0  -6.841801275357317 24.23891723880607 0  -7.200796726203287 23.70087873662449 0  -7.457560034194397 24.02536810400406 0  -7.884618342331584 17.50030949365276 0  -7.833332290817314 18.02115038490849 0  -8.442314105322101 17.75015292380757 0  -7.833289285203685 16.97949596791418 0  -8.442304236260988 17.25015574683044 0  -7.884263406790389 8.500316912273695 0  -7.832960943394218 9.021165333955558 0  -8.442136620376999 8.750158531488214 0  -7.931344567523248 2.415870881465195 0  -7.856374178099619 2.978928837373715 0  -8.465676978021833 2.707936390641305 0  -7.832918118410894 7.979497421197586 0  -8.442126795683354 8.250158232250506 0  -7.834578494002181 49.97958010338998 0  -8.442882367689348 50.25024177590058 0  -6.030964926360134 41.59373932615756 0  -6.12694931216188 42.0680347594300
[...]
<PointData  Scalars="f_29"> 
<DataArray  type="Float64"  Name="f_29"  format="ascii">1.5284097835387342e+02  1.4766816771082844e+02  1.4932833793222113e+02  1.4581935365427449e+02  1.5115956875231728e+02  1.4950254033042924e+02  1.5284701791656229e+02  1.4767116204684049e+02  1.4933368749620570e+02  1.4582500838781584e+02  1.5116207251329061e+02  1.4950435924484222e+02  2.2938933094832404e+02  2.2420910920040160e+02  2.2587187492946617e+02  2.2235963705470814e+02  2.2770327560225573e+02  2.2604471643541783e+02  2.2937064696625586e+02  2.2445002248676849e+02  2.2587239154004308e+02  2.2237765126670413e+02  2.2793596679999109e+02  2.2651690755896061e+02  3.7562250860586363e+02  3.8081566893257758e+02  3.7731371848928887e+02  3.7897758113014004e+02  3.7913956647257316e+02  3.8266919102693038e+02  3.8265686490863106e+02  3.7773037491309179e+02  3.7915628996276638e+02  3.7565434701859795e+02  3.8122537699384242e+02  3.7980195233861252e+02  2.7805724065199257e+02  2.8324249854466666e+02  2.7974542988021682e+02  2.8140610964668838e+02  2.8157768076899032e+02  2.8509286244231413e+02  2.8508464671545687e+02  2.7995733321457345e+02  2.8157897921862804e+02  2.7806648512038885e+02  2.8345420072882808e+02  2.8183336112920853e+02  3.8961857761920010e+02  3.9483736965466625e+02  3.9133835709050754e+02  3.9303812065816527e+02  3.9312299609662034e+02  3.9664734643360555e+02  3.8962328342196645e+02  3.9483944832249108e+02  3.9134090961538175e+02  3.9303974933220564e+02  3.9312618293611121e+02  3.9664993185799119e+02  2.9901370672979419e+02  2.9976816439435197e+02  3.0136323900055680e+02  3.0371318128916374e+02  2.9741819895064958e+02  2.9582410657609233e+02  3.4080445352522764e+02  3.4005047025802304e+02  3.3845467170314635e+02  3.3610501133407763e+02  3.4240034571372269e+02  3.4399483679346946e+02  3.1991224953936523e+02  3.1915544817134980e+02  3.1756206055487417e+02  3.1521163474413555e+02  3.2150541426585198e+02  3.2309833980005391e+02  4.8584106572522600e+01  4.7830482126226855e+01  4.6242073765984109e+01  4.3900162613034063e+01  5.0172707866050231e+01  5.1760226481828120e+01  2.0845417756354354e+02  2.0920850762026220e+02  2.1080183683735680e+02  2.1315036609578425e+02  2.0686147232083863e+02  2.0526865525924111e+02  2.7763258659677323e+01  2.8513148550507307e+01  3.0103894486587848e+01  3.2444595975839050e+01  2.6172136396962308e+01  2.4582121677504318e+01  6.9411602779528863e+01  7.0163989183926120e+01  7.1753859706343377e+01  7.4095988197753471e+01  6.7821686309129120e+01  6.6233198528391668e+01  9.0241563367443533e+01  8.9488483964677982e+01  8.7898828469214621e+01  8.5556226987110833e+01  9.1831247336010520e+01  9.3420065298825378e+01  1.1107687267981918e+02  1.1032495502682252e+02  1.0873350432550500e+02  1.0639027770024897e+02  1.1266838051525411e+02  1.1425842291953441e+02  1.3192432764345980e+02  1.3267878520730847e+02  1.3427029880466662e+02  1.3661699051437503e+02  1.3033346833595024e+02  1.2874340467246969e+02  1.8758770628425805e+02  1.8834089171057690e+02  1.8993361056583331e+02  1.9228002805276728e+02  1.8599480146511445e+02  1.8440203795713094e+02  1.3258015989657414e+02  1.3066250070790494e+02  1.2686974625918813e+02  1.2878387609945227e+02  1.2500820898254644e+02  1.8824260262028699e+02  1.8632252214339772e+02  1.8252309020185842e+02  1.8443972317897513e+02  1.8065220108387265e+02  1.1042257272178948e+02  1.1234011554368882e+02  1.1613362425190560e+02  1.1421512424709934e+02  1.1798858824219479e+02  2.0910881175905206e+02  2.0718918821327000e+02  2.0339029799713143e+02  2.0530609253699456e+02  2.0152061075153134e+02  8.9585675127613555e+01  9.1502494763522165e+01  9.5293974446397641e+01  9.3380451163071356e+01  9.7158792633147002e+01  7.0066548731859527e+01  6.8150418486345174e+01  6.4361201323071825e+01  6.6273759399166195e+01  6.2501189320363629e+01  2.8414747012070098e+01  2.6498631067955486e+01  2.2706467683582741e+01  2.4623303017649189e+01  2.0849009458995440e+01  4.7925954259210705e+01  4.9842802754941999e+01  5.3633420513082960e+01  5.1715921304011630e+01  5.5486821384522457e+01  3.1925285405549886e+02  3.2117516567591434e+02  3.2497750841110559e+02  3.2305855871936166e+02  3.2684763817035980e+02  3.4014834456435858e+02  3.4207120994070976e+02  3.4587532830786932e+02  3.4395148906875352e+02  3.4773561858036908e+02  2.9966998936225303e+02  2.9774766862432347e+02  2.9394613445205209e+02  2.9586429270237170e+02  2.9207904892087612e+02  1.6614069875697328e+02  1.6800222740610505e+02  1.7176538296365769e+02  1.6986397591781119e+02  1.6990668573410730e+02  1.7365835065227103e+02  3.6229706684474223e+02  3.6043181845871618e+02  3.5666417397397339e+02  3.5856558384105983e+02  3.5852558776903817e+02  3.5477501116965067e+02  2.6474917880145574e+02  2.6288568298593066e+02  2.5912268678702628e+02  2.6102141089507182e+02  2.6098168214936749e+02  2.5723637862238951e+02  2.4269045534604183e+02  2.4455464980563673e+02  2.4832064330799250e+02  2.4641902116935861e+02  2.4645539832785644e+02  2.5020262835861288e+02  3.5125748228542159e+02  3.5491325509758866e+02  3.5300217040944000e+02  2.5372018063235060e+02  2.5737260894651058e+02  2.5546412006725217e+02  2.5006749843695513e+02  2.5197269552562736e+02  1.7548565769809895e+02  1.7267388161060993e+02  1.7458249952221215e+02  1.7886556417966619e+02  1.8163463609705710e+02  1.7974869481374571e+02  2.3893407119783424e+02  2.4267714202970049e+02  2.4493649657926923e+02  2.4119342760190469e+02  2.4345277600406050e+02  3.6606233773748755e+02  3.6231249204297688e+02  3.6005003744148138e+02  3.6379915489549757e+02  3.6153607935615776e+02  2.6850778703245749e+02  2.6476344912797384e+02  2.6250365342960424e+02  2.6624765184141091e+02  2.6398753969192114e+02  1.6238373664516433e+02  1.6612424822284913e+02  1.6838052881546020e+02  1.6464025971830202e+02  1.6689631887327300e+02  1.2149966119283935e+02  1.2512319332867369e+02  1.2323989135576278e+02  1.1787692914775020e+02  1.1975541794996698e+02  5.8995890031543802e+01  6.2616342263441233e+01  6.0734348669415759e+01  1.6760151479770183e+01  2.0673341343380820e+01  1.8794014573128536e+01  5.5376026957854087e+01  5.7252571297992674e+01  3.4762402813302481e+02  3.4950787249676307e+02  2.8921446575804481e+02  2.9252047348827205e+02  2.9063614504870100e+02  1.7152688313633939e+02  1.7069570254395458e+02  1.6921124633591353e+02  3.5596667028561569e+02  3.5726589056553411e+02  3.5875127391708202e+02  2.5843888951416983e+02  2.5972982733237109e+02  2.6121318524141816e+02  2.4901720742769112e+02  2.4771842572438416e+02  2.4623486525406548e+02  1.9968155235952804e+02  2.0247590945182287e+02  2.0059088228053150e+02  3.0396063445899426e+02  2.9989232691624755e+02  3.0383717965270097e+02  3.3585906535294009e+02  3.3992662759988872e+02  3.3598161974576414e+02  3.1496342990688646e+02  3.1903094538318607e+02  3.1508717505639800e+02  4.3652619982990714e+01  4.7705996203344178e+01  4.3776307318856034e+01  3.2689302971392159e+01  2.8636151096965129e+01  3.2567008510841724e+01  2.1345321345154420e+02  2.0936037722705615e+02  2.1330263295385484e+02  7.4341973965804215e+01  7.0287810384459377e+01  7.4219121388860628e+01  8.5309566123501426e+01  8.9364541186729284e+01  8.5432789156282055e+01  1.0614513973631246e+02  1.1020146695991450e+02  1.0626730251698996e+02  1.3691921330258990e+02  1.3283092784771353e+02  1.3676904444997015e+02  1.9252700627932106e+02  1.8846461857400732e+02  1.9240369882211206e+02  1.8213197615502571e+02  1.8326674977539665e+02  1.8486031685852080e+02  1.2619418459743362e+02  1.2746857019031471e+02  1.2905933997103136e+02  1.1675515069982330e+02  1.1550707066767355e+02  1.1391587069119002e+02  2.0292875135973316e+02  2.0409856234758664e+02  2.0569156592457873e+02  9.5839234138799782e+01  9.4629802687368141e+01  9.3040305010823005e+01  6.3737445253322853e+01  6.4984959899025256e+01  6.6574659074905270e+01  2.2999976079734562e+01  2.3790715669626955e+01  2.5381899282074347e+01  5.4256482655988293e+01  5.3008656205185233e+01  5.1420070903506904e+01  2.9346994921572411e+02  2.9464672899051106e+02  2.9624243229524137e+02  3.4649854151864997e+02  3.4524698828881776e+02  3.4365131498063511e+02  3.2552489907614734e+02  3.2431174340260884e+02  3.2271848731149936e+02  2.8552353291536843e+02  2.8714888161925893e+02  3.8614385279865837e+02  3.8256130294801943e+02  3.8439430743583205e+02  3.8614126500322374e+02  3.8297163115476218e+02  3.8439712147106712e+02  3.8958983329924945e+02  3.8787865678757322e+02  3.8959184066377071e+02  3.8788092103474457e+02  9.8173029095368136e+00  1.4330380410831175e+01  1.0859543925021883e+01  1.1901285721480873e+01  1.3287042573354256e+01  4.1221981463157903e+02  4.1223850847349354e+02  4.1490549526172680e+02  4.1225670845410929e+02  4.1488742121075671e+02  4.1755507211818588e+02  4.1221979733344023e+02  4.1223866608680555e+02  4.1490578943677110e+02  4.1488752005184631e+02  4.1755507211818588e+02  4.0139008927648479e+02  3.9721425508269300e+02  3.9901148595929817e+02  4.0139097745329832e+02  3.9721573045417688e+02  3.9901318374965297e+02  5.3749354781333132e+00  5.3918586723907467e+00  2.7051647054550987e+00  5.4098042374606026e+00  2.6875053872256660e+00  0.0000000000000000e+00  1.5518526914728290e+02  1.5260153552246891e+02  1.5569808115341272e+02  1.5208998081077445e+02  1.5467651403653122e+02  2.3172675215157432e+02  2.2914103223766730e+02  2.3223616484605861e+02  2.2863231928453260e+02  2.3122089726933379e+02  2.7571611512374068e+02  2.7830409455725265e+02  2.7520307963169284e+02  2.7881608148837006e+02  2.7622527131073110e+02  3.7378993546034712e+02  3.7638393086302500e+02  3.7540011283826999e+02  3.7280946335836370e+02  3.7182397926162940e+02  5.3090414418545775e+00  5.3589311689464667e+00  2.7054868013878810e+00  2.6544387074240081e+00  0.0000000000000000e+00  1.4390245611183909e+02  1.4670279055578555e+02  1.4486672538939143e+02  2.2044087914206966e+02  2.2324304832537246e+02  2.2140593940829768e+02  2.8693340667982523e+02  2.8416955692193847e+02  2.8600735655325235e+02  3.8256220164406722e+02  3.8614382125253451e+02  3.8614370888347150e+02  3.8959079681498974e+02  3.8614309202185945e+02  3.8959164453735667e+02  3.8297214517888546e+02  2.8519746769383949e+02  2.8888661973187419e+02  2.8856076157042276e+02  1.4807200818874381e+02  1.4878737140219286e+02  1.5188619137136283e+02  1.4878650035342912e+02  1.5260093463769178e+02  2.2413807363780728e+02  2.2509041567255451e+02  2.2818805327046837e+02  2.2532690290974787e+02  2.2937626227724215e+02  3.7783109077654143e+02  3.7840519889355062e+02  3.7482689219674398e+02  2.8284083217121196e+02  2.8233697431964521e+02  2.8570117194549857e+02  2.7851658030525624e+02  2.7902078837271563e+02  2.8212437577122603e+02  3.9241544004595352e+02  3.9272791794496368e+02  3.8927947893138077e+02  3.9272706326031778e+02  3.9578177274798207e+02  3.9546960805531393e+02  3.9852285358008515e+02  3.7881646527470724e+02  3.8198709383883971e+02  3.9578252576376929e+02  1.5557901738043029e+02  1.5254115999666971e+02  1.5563670260853345e+02  2.3212008158739624e+02  2.2931870399991925e+02  2.3217688266279077e+02  2.7532370695322624e+02  2.7857723150413540e+02  2.7526533960366748e+02  1.2384807506300619e+02  1.1912633670869594e+02  6.1367903099596006e+01  1.9881600375257825e+01  5.6625004727808644e+01  3.4887692152148071e+02  3.7547372274795384e+02  3.7247053507709711e+02  3.7311524777015370e+02  3.7645789347524914e+02  1.2149948466557024e+02  1.1912709619006507e+02  1.2149976358331281e+02  1.2384689400235850e+02  5.8996832724827328e+01  5.6626475361595695e+01  5.8996455248795442e+01  1.7349302634120704e+01  2.0174886823894418e+01  1.7055231339552005e+01  6.1367267850122623e+01  3.5125586728974719e+02  3.4887696652137055e+02  3.5125686082153641e+02  1.4163205513908807e+02  1.4598858285398106e+02  1.4485138690122093e+02  1.4276858282648334e+02  2.1816918777335272e+02  2.2229086621038019e+02  2.2115322002221089e+02  2.1930615655119880e+02  2.8488564797292742e+02  2.8774571237914546e+02  2.9134193166925337e+02  2.9101586659364636e+02  4.0789779116076875e+02  4.0331384407133208e+02  4.0656885431533601e+02  4.0524027514828583e+02  4.0464476730485120e+02  4.0789783926728131e+02  4.0331416137427379e+02  4.0656892465988795e+02  4.0464503625017238e+02  3.9995503429193957e+02  3.9995443903885410e+02  9.9567270214344575e+01  9.6492717324147733e+01  9.8373843589575998e+01  3.2926287922649709e+02  3.2617969884050467e+02  3.2806602654719677e+02  3.5361322551878720e+02  2.5136739255248096e+02  2.5608072169857269e+02  3.5361131356764105e+02  2.5371978562089836e+02  2.5136836726967775e+02  2.5371999484742472e+02  2.5607944152884659e+02  1.7715531216953264e+02  1.8049886967254926e+02  1.7964384026622807e+02  1.7801018293649534e+02  2.0845534491827428e+02  2.0498513316580019e+02  2.0878202540255970e+02  1.1107274503627836e+02  1.1074762443765083e+02  1.1453536503792365e+02  1.3192784181492601e+02  1.2846402035761088e+02  1.3225397348051331e+02  1.8758946622849584e+02  1.8411846695814208e+02  1.8791609593261265e+02  2.7763852574385815e+01  2.4302319145350260e+01  2.8089444157067103e+01  4.8575018128145054e+01  4.8250247461805969e+01  5.2035878369422271e+01  6.9415433260442228e+01  6.5954176906194832e+01  6.9741134323794654e+01  9.0236567364213940e+01  8.9911150087538303e+01  9.3700354058413652e+01  3.1990593216195538e+02  3.1957943117140968e+02  3.2337941801826929e+02  3.4080034253853586e+02  3.4047430537803950e+02  3.4427265667105786e+02  2.9901669415532530e+02  2.9554368595086879e+02  2.9934353099397208e+02  1.4573646706280650e+02  1.4251662726435839e+02  1.4339864811508272e+02  2.2206562654269618e+02  2.1908134835519311e+02  2.1999198414750134e+02  1.9729386232421811e+02  1.9504047307860179e+02  1.9755403873998841e+02  1.9478010945950473e+02  1.9703402613818719e+02  3.0920667188389962e+02  3.0671199032681994e+02  3.0946250060101886e+02  3.0645488940273697e+02  3.0895053793380646e+02  3.0971851221381689e+02  3.1221276381505629e+02  3.1246978911104628e+02  3.0997517937354962e+02  2.0130518403135977e+02  1.9861731517921456e+02  2.0024142269076867e+02  1.4645127492504488e+02  2.2325426297710962e+02  1.4624902168613373e+01  1.5376431670842842e+02  2.3030777828342318e+02  3.7470434012134706e+02  2.7713865768898552e+02  1.4461682308574390e+02  2.2118583738345603e+02  1.7350613350602146e+02  1.7434087205037753e+02  1.7632087761560737e+02  2.3831977895729847e+02  2.4236913567317430e+02  2.3862648912117686e+02  3.6667589377717383e+02  3.6262022712877268e+02  3.6637004172135590e+02  2.6904050149750361e+02  2.6503074735503156e+02  2.6877473693513008e+02  1.6185335150697878e+02  1.6585841339363262e+02  1.6211802856498281e+02  7.9825639979997732e+01  8.2567776574192081e+01  7.9825918984072061e+01  8.2567610012293187e+01  7.9825343039425846e+01  7.7083822558545251e+01  7.7083449300975772e+01  3.8171200114279848e+01  4.0912423274887125e+01  3.8172114399460369e+01  4.0911653245241979e+01  3.8170403866104216e+01  3.5430624777385553e+01  3.5429687212269428e+01  4.0188272860907239e+02  1.6672357152295478e+02  1.6643318265023740e+02  1.7019227070771205e+02  3.6171338243210084e+02  3.5824026509217714e+02  3.6200450420159552e+02  2.6416707093495478e+02  2.6069697665275129e+02  2.6445755323530932e+02  2.4327163887418200e+02  2.4298168685515938e+02  2.4674120517155205e+02  2.0180226972834976e+02  1.9967811732670569e+02  1.9941827082774668e+02  3.1358004078283670e+02  3.1152077155553860e+02  3.1126581130401263e+02  3.0534603010581799e+02  3.0740456743639078e+02  3.0766010122523198e+02  1.0116857389103284e+02  9.7702928765224399e+01  9.8503753957357759e+01  1.0036829054402237e+02  3.3086901304931376e+02  3.2739348145099331e+02  3.2819683360807812e+02  3.3006627353483265e+02  0.0000000000000000e+00  0.0000000000000000e+00  2.7050384808039007e+00  4.1755507211818588e+02  4.1755507211818588e+02  4.1490579848682529e+02  4.1755507211818588e+02  0.0000000000000000e+00  1.5421231258766235e+02  2.3074871155514288e+02  3.7438613081041353e+02  2.7670190293030197e+02  4.1005930497098336e+02  4.1007665419209195e+02  4.1005924064951290e+02  4.1007679700851980e+02  2.1127365438699599e+01  1.7881898616121322e+01  2.0981210659582000e+01  2.0847687664933169e+01  1.8031639690574863e+01  1.4934053498606421e+01  1.5871612981096700e+02  1.5877568648997561e+02  2.3521998355687509e+02  2.3527799748529483e+02  2.7218212855236209e+02  2.7212153495225124e+02  3.6989437635617639e+02  3.6925054024313312e+02  1.4015742925774052e+02  1.3927586267147674e+02  2.1672116739005006e+02  2.1581163817066741e+02  1.3859218662684917e+01  1.4402867140514687e+01  1.7350706076934973e+01  7.5954934061505428e+00  7.6139688465791986e+00  1.0285730981541914e+02  1.0365625437279816e+02  3.3256209418317275e+02  3.3336337915383541e+02  9.4724451686368436e+00  7.3903368171232078e+00  7.4412474486745914e+00  1.0185126822255945e+02  1.0514130523115070e+02  1.0415182020334144e+02  3.3155318353115899e+02  3.3485238354386019e+02  3.3386007069473595e+02  1.6038272216874128e+02  1.5804036733923749e+02  1.5752941564867169e+02  2.3701713181209175e+02  2.3462656403215803e+02  2.3411873255771167e+02  2.7042658192872602e+02  2.7281487299772311e+02  2.7332615150448140e+02  3.6819727374617776e+02  3.7001087310071404e+02  3.7099309445255921e+02  1.4113255615777953e+02  1.3789313138931220e+02  1.3885188487834603e+02  2.1769860973425062e+02  2.1442909429679767e+02  2.1539187876471254e+02  1.3581965379828992e+01  1.0112903471136937e+01  1.0407238668934678e+01  3.3382913349638352e+02  3.3020125943172627e+02  3.2872113864994668e+02  3.2657381288137475e+02  3.3234920776853937e+02  5.8997516481312793e+01  6.0884169157136860e+01  6.2771113944696346e+01  5.7110236589876848e+01  5.5224093284929445e+01  1.2489677434492437e+02  1.2130870472127746e+02  1.1961030173050024e+02  1.1772154881674049e+02  1.2319832595999419e+02  7.6380972910212336e+01  7.9805770495050282e+01  8.1528202905496613e+01  8.3230747892214893e+01  7.8103503155445637e+01  3.4729759376661910e+01  3.8153040973082831e+01  3.9874213246931404e+01  4.1576550242412445e+01  3.6450982946056484e+01  1.0412029409028875e+02  9.9026180143085611e+01  1.0264454281957214e+02  1.0050204720142094e+02  9.6884041553820538e+01  1.3799802795118489e+02  1.3981585863176369e+02  1.4094910600850758e+02  2.1476125658038634e+02  2.1646603123193194e+02  2.1760008546162254e+02  2.9282949695402834e+02  2.9069445166602947e+02  2.8988252943566977e+02  1.7300743842879459e+02  1.7508205213163413e+02  1.7593523600087900e+02  1.9423665877385082e+02  1.9589636671468497e+02  1.9695828524063066e+02  1.7821356411852435e+02  1.7904684379552455e+02  1.8094000858485268e+02  2.5010342393048901e+02  2.5558934873970290e+02  2.5191126804086971e+02  2.5378090177448522e+02  2.5745824239382455e+02  3.5489413200522694e+02  3.5118020801862258e+02  3.4936130525327656e+02  3.4746712178656298e+02  3.5307530129998651e+02  1.3418225519800826e+01  1.6142575675675388e+01  1.3474906455773356e+02  1.3572328120957786e+02  1.9038478787096673e+02  1.9353385999606033e+02  1.9139202262871666e+02  1.9453299386041169e+02  7.2204110523752874e+01  7.5346394929715871e+01  7.3208318894911756e+01  7.6339205153740224e+01  3.0181511132087564e+02  3.0496799404540155e+02  3.0282174064683545e+02  3.0595942299396160e+02  8.7447688375383208e+01  8.4304407995804439e+01  8.6442687740543590e+01  8.3310662667170291e+01  3.3800409683406303e+02  3.3699752253696590e+02  3.1710833139782886e+02  3.1395608628131413e+02  3.1610120406122553e+02  3.1296453288967672e+02  4.5789487003578685e+01  4.2647333560100613e+01  4.4784248597996616e+01  4.1653868827920910e+01  3.0551848609897906e+01  3.3693053010949839e+01  3.1555604517480248e+01  3.4685403640431772e+01  1.0828426423972815e+02  1.0728050534179495e+02  2.1128060872174947e+02  2.1225611816923492e+02  2.3950868142649458e+02  2.3731940254258694e+02  2.3633219986950394e+02  2.4050540121092860e+02  2.6793106010519892e+02  2.7008186376421583e+02  2.7111003793451516e+02  2.6689453167170035e+02  3.6548129434173040e+02  3.6767606047477597e+02  3.6865659959490108e+02  3.6448579621697280e