<?xml version="1.0"?>
<VTKFile type="UnstructuredGrid"  version="0.1"  >
<UnstructuredGrid>
<Piece  NumberOfPoints="2690" NumberOfCells="4864">
<Points>
<DataArray  type="Float64"  NumberOfComponents="3"  format="ascii">-5.066163289861616 22.01448198483233 0  -5.657568064887434 21.27711640673742 0  -5.064857474574588 21.51566714261907 0  -5.063315950591091 21.01455395221337 0  -5.658875350538174 21.7773820711351 0  -6.251587018441342 21.53794631185472 0  -9 21.99999999996945 0  -8.406535656612007 21.26552628221169 0  -9 21.49999999997139 0  -9 20.99999999997333 0  -8.406767724507839 21.76550941497447 0  -7.813317371361287 21.53098077017964 0  -9 32.9999999999446 0  -8.411614755324772 32.26547901507031 0  -9 32.49999999994358 0  -9 31.99999999994255 0  -8.411846602171996 32.76548346951233 0  -7.82347378636306 32.53093238370076 0  -5.099860934118164 33.01565269906327 0  -5.604831991353902 32.31184665916128 0  -5.098498235807985 32.51773300954981 0  -5.096857770594589 32.0151460991064 0  -5.606184536728914 32.81224817727431 0  -6.112506587086385 32.60659818250128 0  -5.165167690200438 54.0149173247253 0  -5.745251003353457 54.75172377340323 0  -5.743960727369748 54.25234737013518 0  -6.322557909634229 54.48758693982945 0  -5.166682059028974 54.51602599365502 0  -5.168023063947802 55.0150717907126 0  -9 54.99999999998974 0  -8.491914426827471 54.2986681655114 0  -9 54.49999999998872 0  -9 53.99999999998769 0  -8.492118915214247 54.79860576261942 0  -7.984075733747763 54.59723170934977 0  -9 39.99999999995897 0  -8.415552739222166 40.74043122220729 0  -8.415320823417437 40.24043450698878 0  -7.830863215971709 40.48082550281385 0  -9 40.49999999996 0  -9 40.99999999996102 0  -5.124512643849626 41.01384368773114 0  -5.681228386158462 40.28272357829209 0  -5.123161553471635 40.51609233113881 0  -5.121648455624883 40.01558972714087 0  -5.682537645975819 40.78248892971983 0  -6.240604932480589 40.54859979980695 0  -9 55.99999999999179 0  -8.446735221396263 56.74603996999817 0  -8.446533152220782 56.24600052129087 0  -7.893277844769456 56.49200037383178 0  -9 56.49999999999282 0  -9 56.99999999999384 0  -5.171402594074886 56.01424400496759 0  -5.726767213771002 56.75762214363013 0  -5.725495384805126 56.25756115845336 0  -6.279346911802878 56.49907853692505 0  -5.173010983535544 56.51650563659729 0  -5.174347827333099 57.01511770249463 0  -7.488604942704785 43.00820160390105 0  -6.668672999891725 43.1209830059515 0  -7.258364886338867 43.34693062263135 0  -7.028244726600023 43.68567085421825 0  -6.8987910058928 42.78216411739486 0  -6.308769261281675 42.55613135292018 0  -6.653391273300441 49.01548975672321 0  -7.469518413899616 48.90183837316943 0  -6.882411910813846 48.67665161896841 0  -7.111569226531572 48.33776659801649 0  -7.240373324115557 49.24064592776416 0  -7.827134139454929 49.46591296253219 0  -6.647762002949664 46.01454781524919 0  -7.465849153593103 45.90122909202396 0  -6.877353600054318 45.67553875391403 0  -7.10707390791737 45.33660475248023 0  -7.236137320100505 46.2401520264647 0  -7.824302888207507 46.46570178168879 0  -6.575118805540574 7.0150571830384 0  -7.418476750085037 6.901631696788223 0  -6.811823590094418 6.676210947483574 0  -7.048657697858976 6.337368156778849 0  -7.18165122500381 7.240472040987449 0  -7.787975372540434 7.465876138809139 0  -7.472971319665855 30.00810905263131 0  -6.644551267004507 30.12077664831266 0  -7.240351218832367 30.34661541734209 0  -7.007854470182838 30.68507126829873 0  -6.877050763712156 29.78222182906277 0  -6.280916844637137 29.55641556564199 0  -6.569775589190692 4.014334326176913 0  -7.415269531739945 4.11752348033575 0  -6.808090660799721 4.350395455374651 0  -7.0462975780633 4.686409470025405 0  -7.177069907559916 3.781480358873606 0  -7.784543660841492 3.548720288557278 0  -6.580593029348067 10.0151858084392 0  -7.422298469571545 10.11809281672942 0  -6.817868288253831 10.35105717078832 0  -7.055030326661613 10.68692924600797 0  -7.185126444126605 9.782235717263896 0  -7.78987337690142 9.549267574998661 0  -6.586081840783897 13.01532102032781 0  -7.425618164277374 12.90184412759541 0  -6.82170627912588 12.67647976507615 0  -7.057459221616046 12.33764322308064 0  -7.189869097497047 13.24070269039817 0  -7.793453188324096 13.46604176189926 0  -6.59160288142392 16.0155554569312 0  -7.429225992839216 15.90191311363704 0  -6.826685061493055 15.67673151064791 0  -7.061899051446226 15.33786971018929 0  -7.194022939373014 16.24071892442535 0  -7.796228753407513 16.46597005154976 0  -6.597263533986979 19.01393190013675 0  -7.433183830266427 19.11711234408716 0  -6.832953074491016 19.34955251845048 0  -7.068510097439084 19.68526117916294 0  -7.197615497692004 18.7813583821131 0  -7.79819176751559 18.54874469344419 0  -6.612196347125721 27.01341153112846 0  -7.442923754929565 27.11678664606064 0  -6.8464034417735 27.34932644692248 0  -7.080491658730881 27.68526246892108 0  -7.208832500257965 26.78076788587732 0  -7.805677033647795 26.54824629000636 0  -8.27960471995935 19.09800524679411 0  -8.038950992981018 18.82335200708616 0  -8.398967036964736 18.27441292957641 0  -8.639645938876134 18.54906630643835 0  -9 17.99999999998495 0  -8.284084842585548 27.0978413225385 0  -8.044931902294749 26.82304565303054 0  -8.402713111666811 26.27410971406507 0  -8.641890285935364 26.54891790456379 0  -9 25.99999999995395 0  -8.277802264748169 15.91071418271968 0  -8.036963639283149 16.18835037027315 0  -8.398240687118495 16.73295228116035 0  -8.639054147061115 16.45533329330617 0  -9 16.99999999998883 0  -5.805367249549327 30.11162087062266 0  -6.043087001609909 29.83400144078902 0  -5.684453554269497 29.28886722088282 0  -5.446717518833044 29.56716968634519 0  -5.087425975580232 29.01446909306324 0  -8.276141610292278 12.9107080027024 0  -8.034746382973745 13.18837184293001 0  -8.396849952491817 13.73302720794811 0  -8.63822145361625 13.45536103449651 0  -9 13.99999999999401 0  -8.274599984567619 10.09846471053729 0  -8.032286588322012 9.823866731878097 0  -8.394812568786048 9.274631426439617 0  -8.637150955418226 9.549229478149323 0  -9 8.99999999999857 0  -8.27137904991384 4.098195205929136 0  -8.028006468014693 3.823469804294412 0  -8.392172003655828 3.274339133391214 0  -8.635557793770875 3.549067562469973 0  -9 2.999999999998668 0  -8.272859938947143 6.910601708076871 0  -8.03036688568791 7.18823605056941 0  -8.394110488403092 7.732942360240354 0  -8.636579254160823 7.455309685600208 0  -9 7.999999999999485 0  -8.294640168396839 45.9104161746041 0  -8.059420127340807 46.18804200233806 0  -8.412276817348308 46.73287748562223 0  -8.647472023690137 46.4552531666525 0  -9 46.99999999997333 0  -8.296328148059427 48.91067155847394 0  -8.061677906877851 49.18830052891853 0  -8.413696194177245 49.73292236244061 0  -8.648320777210561 49.45531456777279 0  -9 49.99999999997949 0  -5.838107093268865 43.11179855590294 0  -6.073382013501458 42.83396061820352 0  -5.718417843456309 42.2883821334145 0  -5.483132092948573 42.56698357717296 0  -5.127478879811353 42.01387672006221 0  -5.785277462623317 23.93421135305678 0  -6.030161654186169 24.20038084263443 0  -5.675149409121251 24.74392472267206 0  -6.274936034691361 24.4665988029057 0  -5.430348462187138 24.47844162842104 0  -5.075449477293168 25.01438499049628 0  -8.30271523929604 52.08773178426695 0  -8.063626004224034 51.82147363135779 0  -8.412082420300388 51.27766865902866 0  -7.824431161747121 51.55525656202429 0  -8.65120127347285 51.54392595724091 0  -9 50.99999999998153 0  -5.82085373296441 38.10137058938261 0  -6.061785326217636 37.83197273251852 0  -5.70771780144777 37.29166519719418 0  -6.302824497296203 37.5626222083387 0  -5.466767367907751 37.5618896281693 0  -5.111993778532932 37.01323162805807 0  -5.812867532191228 34.93407222964824 0  -6.05566536563057 35.20013771761375 0  -5.703728140760339 35.74349997380628 0  -6.298353691320706 35.46624927265982 0  -5.461003973409803 35.47822429329971 0  -5.109203678664107 36.01371849053143 0  -7.92672104596806 50.50690736656529 0  -7.87555300453094 51.03110037133269 0  -8.463470086273595 50.75341540878259 0  -6.196263538653186 36.5142977069322 0  -6.249560162153479 37.03837006370794 0  -5.65419459285311 36.76632756131787 0  -6.24728826828534 35.99017780158869 0  -5.652872861932935 36.26616405563878 0  -6.034376380926015 25.27568638985981 0  -6.154625167362425 24.8711733246419 0  -5.555015024872669 25.14768195234915 0  -8.046403786152704 25.75101902451202 0  -7.926003152975207 26.14963214701401 0  -8.523248276081011 25.87551191697199 0  -6.995970349839951 34.38646525904164 0  -6.64701074732314 34.92644085844177 0  -6.897705664003699 35.2495640193105 0  -7.246684071672794 34.70970873514302 0  -7.497267960299366 35.03292637759194 0  -7.135662590314777 52.63463562129843 0  -7.479891231929196 52.0950239282267 0  -7.232662619546113 51.77212557317409 0  -6.888449403345625 52.31178207396458 0  -6.641102207500293 51.98897003066464 0  -7.002712110501928 38.63456895466299 0  -6.65291951834529 38.09867924728317 0  -6.901903059252903 37.77272368699199 0  -7.251680577754898 38.30874146433577 0  -7.500777866903793 37.98288236583414 0  -6.978631904054738 23.38654251838917 0  -6.626634931719223 23.92662225449885 0  -6.879487228540853 24.24981130074002 0  -7.231504774499941 23.70983330420488 0  -7.48424907518171 24.03308345336319 0  -7.898539615420083 17.50678700300256 0  -7.848343358968163 18.02778755601698 0  -8.449377711573476 17.75335410570171 0  -7.847404087798123 16.98638644359592 0  -8.449162053680098 17.25341533922496 0  -7.890957397920403 8.506943289038276 0  -7.840395911104857 9.028106818249322 0  -8.445582094446573 8.753473175299215 0  -7.933393876471019 2.421629730646191 0  -7.858927114473822 2.985156710116827 0  -8.466794457387333 2.710835169913624 0  -7.839486724877221 7.986413511273207 0  -8.445373542636748 8.253466763575034 0  -7.876948518898375 49.9864187591691 0  -8.463250126849468 50.25347638552152 0  -6.120644483135366 41.60713884033664 0  -6.21474252888892 42.08169849568793 0  -5
[...]
<PointData  Scalars="f_29"> 
<DataArray  type="Float64"  Name="f_29"  format="ascii">3.9073146535055406e+02  3.7728345769016175e+02  3.8159151024418969e+02  3.7246789731097709e+02  3.8636878167334351e+02  3.8203571449736398e+02  3.9061576372947019e+02  3.7717071317404185e+02  3.8147396406336190e+02  3.7234501049959960e+02  3.8625729026799570e+02  3.8196816064710686e+02  5.9180197062954039e+02  5.7809998835835597e+02  5.8248372809359591e+02  5.7318090592194983e+02  5.8736110413039717e+02  5.8298788155073385e+02  5.9187329647217427e+02  5.7883906031457093e+02  5.8260013308229827e+02  5.7335172549403285e+02  5.8808090424438933e+02  5.8430528746148252e+02  9.8655684687928840e+02  1.0008150181307465e+03  9.9119989601206782e+02  9.9575102728062382e+02  9.9621032101524634e+02  1.0059066598323843e+03  1.0057599998552304e+03  9.9223776172676389e+02  9.9613832517640958e+02  9.8651618953610557e+02  1.0018461076140882e+03  9.9795247066583090e+02  7.2166185906382862e+02  7.3560112840613851e+02  7.2621265101638915e+02  7.3069480860120348e+02  7.3110935488784241e+02  7.4054571132334308e+02  7.4065621613411179e+02  7.2688264047455698e+02  7.3123433401058867e+02  7.2179938944054766e+02  7.3628195812032811e+02  7.3190857190205111e+02  1.0249229593665914e+03  1.0393126023462291e+03  1.0296759844189512e+03  1.0343787706092930e+03  1.0345741961217025e+03  1.0442772340266531e+03  1.0250384627667177e+03  1.0393995577310102e+03  1.0297680332267689e+03  1.0344349761463784e+03  1.0346806111288724e+03  1.0443864915729916e+03  7.7806220878288354e+02  7.8011488836164619e+02  7.8440397502235544e+02  7.9075169203796725e+02  7.7377870723312651e+02  7.6949635074712637e+02  8.9127177114166614e+02  8.8918894749796209e+02  8.8486706891552501e+02  8.7846633117110730e+02  8.9559832838868317e+02  8.9992009352291370e+02  8.3454583579477935e+02  8.3246979468042866e+02  8.2817963913732785e+02  8.2181442806903146e+02  8.3884154120665983e+02  8.4313455364717981e+02  1.2257201379441749e+02  1.2062885431663882e+02  1.1662221953750054e+02  1.1067506429737706e+02  1.2658340702377475e+02  1.3059055144596516e+02  5.3645815139846889e+02  5.3846784607523500e+02  5.4266519706035615e+02  5.4887926503038113e+02  5.3226943181086608e+02  5.2808140262537552e+02  6.9869946662992149e+01  7.1739214575194168e+01  7.5774473109025593e+01  8.1680807118803529e+01  6.5839298394259856e+01  6.1809598682857136e+01  1.7557713188915227e+02  1.7746293789976107e+02  1.8154679280094882e+02  1.8751756819633599e+02  1.7149712299953018e+02  1.6742074022649342e+02  2.2885530632172953e+02  2.2689024009120124e+02  2.2284084099838475e+02  2.1682898184635525e+02  2.3290861027244455e+02  2.3695858976569079e+02  2.8241607514641913e+02  2.8044680289897724e+02  2.7636802217722305e+02  2.7032384568679970e+02  2.8649935025763187e+02  2.9057774798301671e+02  3.3631490898260950e+02  3.3824878489334310e+02  3.4239723501782373e+02  3.4848446057646822e+02  3.3217488745641606e+02  3.2803343546367103e+02  4.8152947189470211e+02  4.8348808408907183e+02  4.8769017951307967e+02  4.9385428878910136e+02  4.7733449571636226e+02  4.7313639854425878e+02  3.3796155283506505e+02  3.3299899447073579e+02  3.2315483442406270e+02  3.2810380677303920e+02  3.1830666303366860e+02  4.8320076512610154e+02  4.7816881066729826e+02  4.6818461431412032e+02  4.7320337081457251e+02  4.6325316976625521e+02  2.8066274315297954e+02  2.8561903144083675e+02  2.9539169453974336e+02  2.9042894474249175e+02  3.0015788236550321e+02  5.3820630437826981e+02  5.3314659044615746e+02  5.2315103928593521e+02  5.2816795729500848e+02  5.1824861479139156e+02  2.2710024324072526e+02  2.3202817490033783e+02  2.4173986002187806e+02  2.3681659789829800e+02  2.4649955978368936e+02  1.7717534179310729e+02  1.7229924978202612e+02  1.6262146660230965e+02  1.6748472736770518e+02  1.5785403984510418e+02  7.1459074163233538e+01  6.6634719320188722e+01  5.7057809046598273e+01  6.1880092459270053e+01  5.2354504054167151e+01  1.2083502249770194e+02  1.2571170920013277e+02  1.3532205674671522e+02  1.3043995804554280e+02  1.4000620101908990e+02  8.3269839294818757e+02  8.3791515320878159e+02  8.4820272278568177e+02  8.4299019835533409e+02  8.5324904101079437e+02  8.8942098529825648e+02  8.9466929269636228e+02  9.0502125099772002e+02  8.9976649757273697e+02  9.1007584628999348e+02  7.7985151795837101e+02  7.7467659834713027e+02  7.6445716064677106e+02  7.6958858186518830e+02  7.5945446512212891e+02  4.2536359011566594e+02  4.3023388049736519e+02  4.4010333569107127e+02  4.3510272708873970e+02  4.3520416537482316e+02  4.4508890461656722e+02  9.4990120928861495e+02  9.4480527815508810e+02  9.3447973230606999e+02  9.3970769587369841e+02  9.3956152268135486e+02  9.2928177487343942e+02  6.8606411645958940e+02  6.8108708401891306e+02  6.7105653797753689e+02  6.7610692088358337e+02  6.7598358119191801e+02  6.6604567678420756e+02  6.2721355868881983e+02  6.3218176936638326e+02  6.4224094871021305e+02  6.3714908653218492e+02  6.3723463514750097e+02  6.4729729510454831e+02  9.1972799727569191e+02  9.2971954627802972e+02  9.2447253738167376e+02  6.5664699995670935e+02  6.6637753310591756e+02  6.6132269865719047e+02  6.4688858082183901e+02  6.5200005965210516e+02  4.4984266951772486e+02  4.4246763114165964e+02  4.4749936137725075e+02  4.5861176866515967e+02  4.6587456279441085e+02  4.6090806607296167e+02  6.1721191941929453e+02  6.2717291158465753e+02  6.3318388520351664e+02  6.2321462448831539e+02  6.2921948156996268e+02  9.6025850868290081e+02  9.4997582970620067e+02  9.4379126961477732e+02  9.5406645351998884e+02  9.4787843739989285e+02  6.9611539458060486e+02  6.8609905278186875e+02  6.8005301333563614e+02  6.9006025194698759e+02  6.8400726299775783e+02  4.1554344141000763e+02  4.2531498150792100e+02  4.3120684496167650e+02  4.2142771771819935e+02  4.2731311457036480e+02  3.0927821575609016e+02  3.1865713314776923e+02  3.1375935288330305e+02  2.9991972032619282e+02  3.0474704265742605e+02  1.4898090809550402e+02  1.5820286503673796e+02  1.5338383713634479e+02  4.2099387818223647e+01  5.1956831528234112e+01  4.7200427842497746e+01  1.3977787709343224e+02  1.4452199577839269e+02  9.0981570630610133e+02  9.1493021752487277e+02  7.5173979640780306e+02  7.6061658377514163e+02  7.5557778968357434e+02  4.3943422650287260e+02  4.3727072317276907e+02  4.3337028024744836e+02  9.3262843610722996e+02  9.3616758712957380e+02  9.4025198960479474e+02  6.6919552913006851e+02  6.7265209015156279e+02  6.7659761518036680e+02  6.4405878365422927e+02  6.4060632833816760e+02  6.3663510795833133e+02  5.1338355769783652e+02  5.2073115459949372e+02  5.1579840890623643e+02  7.9144275725911814e+02  7.8045525147705996e+02  7.9109964280562190e+02  8.7776707542871918e+02  8.8883679808185605e+02  8.7811732638814465e+02  8.2111026874331810e+02  8.3211740621785111e+02  8.2146304902058785e+02  1.1001581518717811e+02  1.2029704952533272e+02  1.1034698243113000e+02  8.2270455946297460e+01  7.2035970446276522e+01  8.1977587333727300e+01  5.4969923999277944e+02  5.3887446464534344e+02  5.4929292104916237e+02  1.8810981861994298e+02  1.7776139094589627e+02  1.8781558986236521e+02  2.1616182901172922e+02  2.2655491911532388e+02  2.1649685740724217e+02  2.6966069869963167e+02  2.8011282361187114e+02  2.6999293763054061e+02  3.4924062296523488e+02  3.3863006171435512e+02  3.4886680386550711e+02  4.9447696949635304e+02  4.8380075991092355e+02  4.9416781109761723e+02  4.6720598385489518e+02  4.7017066633706156e+02  4.7436653886434101e+02  3.2145574707382224e+02  3.2474439435801611e+02  3.2888353384836319e+02  2.9705220677817670e+02  2.9381645292391443e+02  2.8973205806072070e+02  5.2189669892535903e+02  5.2499080354541763e+02  5.2917452464123403e+02  2.4319941154375539e+02  2.4007978305425587e+02  2.3602519165599460e+02  1.6108989539758466e+02  1.6425530402392377e+02  1.6833120661602288e+02  5.7845599709768919e+01  5.9827934272314948e+01  6.3856655874151329e+01  1.3696258379725970e+02  1.3377799898762893e+02  1.2976458975889105e+02  7.6314913298844533e+02  7.6632355909851572e+02  7.7060390868549564e+02  9.0677470032120823e+02  9.0334891932325752e+02  8.9902095757413667e+02  8.4973848787108295e+02  8.4643721469003458e+02  8.4213952795270291e+02  7.4182485366047911e+02  7.4619585785811171e+02  1.0154452741305851e+03  1.0056008137028839e+03  1.0106329364853802e+03  1.0153825698338002e+03  1.0066667140132735e+03  1.0105661769563021e+03  1.0248798399272248e+03  1.0201510044532670e+03  1.0249407650097837e+03  1.0202394087301989e+03  2.4644237941476252e+01  3.5998522226877917e+01  2.7271884786193880e+01  2.9896064311648310e+01  3.3365502350922050e+01  1.0873204546590491e+03  1.0873781877359002e+03  1.0947640824897178e+03  1.0874328644173866e+03  1.0947105708970062e+03  1.1021044923528982e+03  1.0873242468787796e+03  1.0873824064818734e+03  1.0947668361932747e+03  1.0947132638821158e+03  1.1021044923528982e+03  1.0573946266819842e+03  1.0458831661774384e+03  1.0508177833900952e+03  1.0574338145118693e+03  1.0459370619315389e+03  1.0508895707188344e+03  1.3480074410197526e+01  1.3531025977115416e+01  6.7882056308441401e+00  1.3579837204876675e+01  6.7393388027560013e+00  0.0000000000000000e+00  3.9676453836423877e+02  3.9004633165725596e+02  3.9812258286599041e+02  3.8868950669163775e+02  3.9541576868036839e+02  5.9805962520180015e+02  5.9121052418914701e+02  5.9943167721098519e+02  5.8983930916938311e+02  5.9669580743698305e+02  7.1542634965388913e+02  7.2238047025936919e+02  7.1406928411527304e+02  7.2373317992774469e+02  7.1677238227129544e+02  9.8149864537894257e+02  9.8862839350803813e+02  9.8590311575157477e+02  9.7878974668643616e+02  9.7606710354289419e+02  1.3318892957758166e+01  1.3450358839777230e+01  6.7893070773870674e+00  6.6568852392957423e+00  0.0000000000000000e+00  3.6746949193511023e+02  3.7475532910556001e+02  3.6999245218069143e+02  5.6813559367089533e+02  5.7556121998223045e+02  5.7067277248869129e+02  7.4553370856626282e+02  7.3811287432994811e+02  7.4302559141249253e+02  1.0055886855586193e+03  1.0154405628482724e+03  1.0154262730883690e+03  1.0248998930976295e+03  1.0154082578727009e+03  1.0249274031488958e+03  1.0066867923821154e+03  7.4092941086313681e+02  7.5084329222356473e+02  7.4994898256197018e+02  3.7827773345126388e+02  3.8012149837806311e+02  3.8820240945944090e+02  3.8015531826093905e+02  3.9007774150920318e+02  5.7796829968580323e+02  5.8047647550826980e+02  5.8870052308858999e+02  5.8113686099946835e+02  5.9186520267684523e+02  9.9256492884844090e+02  9.9416104853586739e+02  9.8431347052930107e+02  7.3458083818036209e+02  7.3324535255991566e+02  7.4226605798845958e+02  7.2298068147356821e+02  7.2432061135734739e+02  7.3264072844487168e+02  1.0326909841695917e+03  1.0335646856816518e+03  1.0240571024835779e+03  1.0335366999587550e+03  1.0419504961761263e+03  1.0411037878848588e+03  1.0495155240772285e+03  9.9525942522251228e+02  1.0039929469176205e+03  1.0419762993255563e+03  3.9784285721085598e+02  3.8994397644058137e+02  3.9798137758139882e+02  5.9915332272343915e+02  5.9173130694471797e+02  5.9929199810521732e+02  7.1441980462559081e+02  7.2316278154225017e+02  7.1425296036619670e+02  3.1536913513275880e+02  3.0316089397188472e+02  1.5503740357751965e+02  4.9974212129262220e+01  1.4296765853467491e+02  9.1324722908281694e+02  9.8607173003858259e+02  9.7782747030357189e+02  9.7957850946025417e+02  9.8876186069973051e+02  3.0931263680708838e+02  3.0318070831280284e+02  3.0929728969533068e+02  3.1538322418720963e+02  1.4902006203919893e+02  1.4298974820772315e+02  1.4900225035207930e+02  4.3610435693118951e+01  5.0728131043959692e+01  4.2857656063166701e+01  1.5505410081037564e+02  9.1975931212400053e+02  9.1326506484813979e+02  9.1974549730415492e+02  3.6152377718937294e+02  3.7287991420317110e+02  3.6989955551482802e+02  3.6450156015828009e+02  5.6215893307199497e+02  5.7305461593919517e+02  5.7006231699993350e+02  5.6515072550531875e+02  7.4005262996808324e+02  7.4773838214724617e+02  7.5744054693481507e+02  7.5654974800848390e+02  1.0753734450158970e+03  1.0627149723007255e+03  1.0717059360273483e+03  1.0680397013401414e+03  1.0663836233809052e+03  1.0753732882280733e+03  1.0627280136798836e+03  1.0717075498776226e+03  1.0663977537416540e+03  1.0534712156760652e+03  1.0534500435315140e+03  2.5273473331856030e+02  2.4484215912266060e+02  2.4964606195536624e+02  8.5984276002764238e+02  8.5148380074661395e+02  8.5657428471145784e+02  9.2618012055932809e+02  6.5034447487282227e+02  6.6291908688595379e+02  9.2619301766526792e+02  6.5660251335375551e+02  6.5033046451884911e+02  6.5662237111776653e+02  6.6289930060209190e+02  4.5417017022618262e+02  4.6290916277373231e+02  4.6068823664359928e+02  4.5639016802372458e+02  5.3648885560200324e+02  5.2732542722459027e+02  5.3735674347543602e+02  2.8230615825444750e+02  2.8148599935015432e+02  2.9124049018579473e+02  3.3623989656116771e+02  3.2726008007599387e+02  3.3710226268845736e+02  4.8145737104225560e+02  4.7234637873120909e+02  4.8233084855671132e+02  6.9786197372734279e+01  6.1056865507439241e+01  7.0624540945471168e+01  1.2244950495621725e+02  1.2164311863733533e+02  1.3123742547523889e+02  1.7548013620180717e+02  1.6665428914204858e+02  1.7632938057692857e+02  2.2873483534942915e+02  2.2791889644709775e+02  2.3762178538973453e+02  8.3443443303172592e+02  8.3356793723878650e+02  8.4384581233209872e+02  8.9116401838706327e+02  8.9029417865005371e+02  9.0062808889070698e+02  7.7809505206392851e+02  7.6872911906755905e+02  7.7898280153027724e+02  3.7217840665126573e+02  3.6380453680452001e+02  3.6607519548394174e+02  5.7249740992930072e+02  5.6459365145058348e+02  5.6702148094480663e+02  5.0702682234454556e+02  5.0110356253253173e+02  5.0773439087273221e+02  5.0039658661698627e+02  5.0632030264074206e+02  8.0561625152094200e+02  7.9886538700401809e+02  8.0627913199151487e+02  7.9819417833092041e+02  8.0496398363429421e+02  8.0694523662546976e+02  8.1369279249933174e+02  8.1436217897216295e+02  8.0761367236371666e+02  5.1763711549094023e+02  5.1055582243190344e+02  5.1481529931628791e+02  3.7402031701046218e+02  5.7566290986820002e+02  3.6751208113932492e+01  3.9302323234916679e+02  5.9425686123625439e+02  9.8402705478872008e+02  7.1921194429777768e+02  3.6922266685803089e+02  5.7019817495186010e+02  4.4463371275845691e+02  4.4680117072337401e+02  4.5200655582380477e+02  6.1559507318891053e+02  6.2635782808329213e+02  6.1640460077240209e+02  9.6191519069832361e+02  9.5080454219892260e+02  9.6109136481148801e+02  6.9755709209879797e+02  6.8681807266105807e+02  6.9683993977662942e+02  4.1417514176708806e+02  4.2462547418871486e+02  4.1486045930810877e+02  2.0213363944099714e+02  2.0915919866791927e+02  2.0215965608940357e+02  2.0913340510059632e+02  2.0210724386026962e+02  1.9513304705989998e+02  1.9510644935964933e+02  9.6139857594212131e+01  1.0308869744008983e+02  9.6164133006655732e+01  1.0306420300998262e+02  9.6115364872537000e+01  8.9215121180747914e+01  8.9190938562631374e+01  1.0587777015962924e+03  4.2689084491048209e+02  4.2613733718592783e+02  4.3595657562836362e+02  9.4827300335002394e+02  9.3876458478186157e+02  9.4908680774755533e+02  6.8451218556468052e+02  6.7522734052032092e+02  6.8529406168529022e+02  6.2876502149970804e+02  6.2799822917005713e+02  6.3800328677525636e+02  5.1889548758953515e+02  5.1331349363563641e+02  5.1260704357131374e+02  8.1744033858904652e+02  8.1185928610810333e+02  8.1119811938759824e+02  7.9512634706548954e+02  8.0070189611125897e+02  8.0136798445062016e+02  2.5689220594434869e+02  2.4796549333906373e+02  2.5004421107421115e+02  2.5481620189596526e+02  8.6424038011957498e+02  8.5478903542762760e+02  8.5698759708256489e+02  8.6204417136127483e+02  0.0000000000000000e+00  0.0000000000000000e+00  6.7893844347660011e+00  1.1021044923528982e+03  1.1021044923528982e+03  1.0947671076721599e+03  1.1021044923528982e+03  0.0000000000000000e+00  3.9429908788688840e+02  5.9552876673700928e+02  9.8305141113736738e+02  7.1813305001153094e+02  1.0813445110316600e+03  1.0814001607513906e+03  1.0813482680821296e+03  1.0814021563616991e+03  5.3154006694219675e+01  4.4997534961233498e+01  5.2803798618117746e+01  5.2479740105897413e+01  4.5360152814384314e+01  3.7552331800988938e+01  4.0600702354756635e+02  4.0614885068210754e+02  6.0737328914353589e+02  6.0751311973406064e+02  7.0598744626723817e+02  7.0581173106834206e+02  9.7074184402487003e+02  9.6899084861820234e+02  3.5765282944510113e+02  3.5538067898058887e+02  5.5835634799149636e+02  5.5593162638786032e+02  3.4830197218766578e+01  3.6221330436878446e+01  4.3640151844348274e+01  1.9058810212486346e+01  1.9113691183271467e+01  2.6119825163635613e+02  2.6327270588907885e+02  8.6880510050323755e+02  8.7099995250845609e+02  2.3788999475684037e+01  1.8550957567477219e+01  1.8683176533198736e+01  2.5858274592714281e+02  2.6705205121186907e+02  2.6447800918381091e+02  8.6603768707713800e+02  8.7500625528147725e+02  8.7227864627148153e+02  4.1029833924415357e+02  4.0420814553682408e+02  4.0285564146433575e+02  6.1209396600260436e+02  6.0576061923097154e+02  6.0439302590350030e+02  7.0123341723219528e+02  7.0764939104621681e+02  7.0900247030259095e+02  9.6613735721010016e+02  9.7110245587678810e+02  9.7381003415746318e+02  3.6016174029391539e+02  3.5174825848747093e+02  3.5421713034821778e+02  5.6095632146688365e+02  5.5229974913600756e+02  5.5487445885087834e+02  3.4096639813483577e+01  2.5379451489454574e+01  2.6107969848774541e+01  8.7230550268844854e+02  8.6245919742022215e+02  8.5842630090427599e+02  8.5261796419667519e+02  8.6827358993349776e+02  1.4905553351506990e+02  1.5384067870015372e+02  1.5866128787736520e+02  1.4423716547396066e+02  1.3945759438227307e+02  3.1812656539296091e+02  3.0885093721403524e+02  3.0444600492943522e+02  2.9958505547052266e+02  3.1371992756131419e+02  1.9338726175780380e+02  2.0214139869617406e+02  2.0653049714077218e+02  2.1090644739466833e+02  1.9777318613567573e+02  8.7483866611589718e+01  9.6145201300375774e+01  1.0048730624250419e+02  1.0481625910929668e+02  9.1823801550581123e+01  2.6450904439819800e+02  2.5140478722780327e+02  2.6070156088927160e+02  2.5521332075314652e+02  2.4592226789269634e+02  3.5210063979031003e+02  3.5681534022147270e+02  3.5978045460906822e+02  5.5311159578537774e+02  5.5763697343178148e+02  5.6062018538459233e+02  7.6139610844134563e+02  7.5566987398703657e+02  7.5346675610669149e+02  4.4327980945748561e+02  4.4872607150117221e+02  4.5094115589538308e+02  4.9903741294399555e+02  5.0338837022462820e+02  5.0620897114476207e+02  4.5698252112358040e+02  4.5914158803360743e+02  4.6411440511869500e+02  6.4692127967284569e+02  6.6157248039280091e+02  6.5176061924045189e+02  6.5673057341918422e+02  6.6654514651087140e+02  9.2973168513570772e+02  9.1958637068638666e+02  9.1460299854840616e+02  9.0945251092115700e+02  9.2474639048740426e+02  3.3722005432553765e+01  4.0585434189390938e+01  3.4359890680562194e+02  3.4610480334227276e+02  4.8883813892969198e+02  4.9710389746995565e+02  4.9146364041095944e+02  4.9971164340047562e+02  1.8264169919099092e+02  1.9064926467995778e+02  1.8517844809431836e+02  1.9316000084230214e+02  7.8564771087177201e+02  7.9417877013086331e+02  7.8835331926936180e+02  7.9686185392007928e+02  2.2163076609734426e+02  2.1356138386016696e+02  2.1902827151377826e+02  2.1099058906541828e+02  8.8359475869757921e+02  8.8082995439909848e+02  8.2690423044824502e+02  8.1836122641789393e+02  8.2415339609824832e+02  8.1565158542287804e+02  1.1542553621122801e+02  1.0744413681947717e+02  1.1285107145883320e+02  1.0490277100991942e+02  7.6863765097142320e+01  8.4784159683676094e+01  7.9374836863140857e+01  8.7268055205621678e+01  2.7516236080886551e+02  2.7255047837319285e+02  5.4395274312759057e+02  5.4652188391260370e+02  6.1874325719583794e+02  6.1295997599870395e+02  6.1035556729842301e+02  6.2140231382255013e+02  6.9457683101794419e+02  7.0036928738265658e+02  7.0314647973121100e+02  6.9180750265184929e+02  9.5861326578602780e+02  9.6463806989628631e+02  9.6731083396509621e+02  9.5590561244588798e