<?xml version="1.0"?>
<VTKFile type="UnstructuredGrid"  version="0.1"  >
<UnstructuredGrid>
<Piece  NumberOfPoints="2690" NumberOfCells="4864">
<Points>
<DataArray  type="Float64"  NumberOfComponents="3"  format="ascii">-5.033660684814344 22.00739393362551 0  -5.630813895429615 21.26996835267639 0  -5.032987735021955 21.50800131422142 0  -5.032217144951981 21.00744230582027 0  -5.631469907529898 21.77010070789816 0  -6.229303906442442 21.53161263516902 0  -9 21.99999999996945 0  -8.401789207419373 21.264045259901 0  -9 21.49999999997139 0  -9 20.99999999997333 0  -8.4019058805365 21.7640365891829 0  -7.803701565599184 21.52805398309618 0  -9 32.9999999999446 0  -8.404352406553699 32.2640212824689 0  -9 32.49999999994358 0  -9 31.99999999994255 0  -8.404469123147736 32.7640234135856 0  -7.808827580621217 32.5280295094703 0  -5.050675378572135 33.00799740645336 0  -5.562891039240686 32.30427122771309 0  -5.049969125931985 32.50905729884964 0  -5.04916442346653 32.00774310518167 0  -5.563566758775865 32.80447474402784 0  -6.076483365754816 32.59980710193639 0  -5.083440369806787 54.00764108369603 0  -5.674897033190526 54.74478259102106 0  -5.674251733650215 54.24509971074249 0  -6.2649886445662 54.48144173851844 0  -5.084178763672782 54.50819148038814 0  -5.084869062319231 55.00771888961112 0  -9 54.99999999998974 0  -8.481036863002439 54.29742004122136 0  -9 54.49999999998872 0  -9 53.99999999998769 0  -8.481138127754079 54.79738890907441 0  -7.962195564843231 54.59478772354316 0  -9 39.99999999995897 0  -8.406333991048689 40.73899785426816 0  -8.406217284354355 40.23899935845125 0  -7.812545814426608 40.47797697451954 0  -9 40.49999999996 0  -9 40.99999999996102 0  -5.063084302707448 41.00708854957092 0  -5.629513058278836 40.2754429110209 0  -5.06238569926512 40.50822983356194 0  -5.061638457993412 40.00798154413638 0  -5.630170838810709 40.77532248435086 0  -6.19730282909639 40.54226546319696 0  -9 55.99999999999179 0  -8.434340001411266 56.74471406658773 0  -8.434239700592467 56.2446945262428 0  -7.868584491431217 56.48938832093451 0  -9 56.49999999999282 0  -9 56.99999999999384 0  -5.086546027325517 56.00730513758007 0  -5.653238137846431 56.75064587950006 0  -5.652597248917208 56.25061544304337 0  -6.218552310627451 56.49301334339417 0  -5.08733086729491 56.50843616107042 0  -5.088018388457793 57.00774047540748 0  -7.463373493785606 43.00418472757235 0  -6.629639003182088 43.1147059996531 0  -7.229052725799042 43.34223136105598 0  -6.994793453239335 43.68028418287133 0  -6.863899292281214 42.77661399529843 0  -6.264317251739827 42.54904420105777 0  -6.60851121454169 49.0078894408173 0  -7.440318152209236 48.89692667086656 0  -6.842221014516279 48.66978681663122 0  -7.07599659391668 48.33166110107813 0  -7.206547372770761 49.23501324978095 0  -7.80447389742736 49.46219368637246 0  -6.605671579964177 46.00741253718411 0  -7.438467802380298 45.89661981660601 0  -6.839665026134266 45.6692251210287 0  -7.073722360470396 45.3310758433773 0  -7.204415071378786 46.23476399786313 0  -7.803050986146662 46.46208746757325 0  -6.56897816199357 7.007682711625244 0  -7.414539114679005 6.896831367470145 0  -6.806564403749105 6.669575737783326 0  -7.044214599434762 6.331470699123527 0  -7.176893564173921 7.234935516142118 0  -7.78470209241409 7.462182343099111 0  -7.455502988848801 30.00413759808497 0  -6.617495908422134 30.11460195465513 0  -7.219982434428672 30.34207180424726 0  -6.984524331721837 30.67998083068644 0  -6.852956666173119 29.77664330452788 0  -6.250301110702244 29.54918917196433 0  -6.566241144365763 4.007316656076548 0  -7.412896261336333 4.112944192788128 0  -6.804652470171516 4.344002493460161 0  -7.043005836189775 4.680663991211794 0  -7.17454671062699 3.77626740613457 0  -7.782944366476585 3.545266636867558 0  -6.571768447926625 10.00775059633936 0  -7.416487731619717 10.1132342140481 0  -6.809646113046422 10.34433942482984 0  -7.047464173102965 10.68092842097397 0  -7.178665236851223 9.776652426439462 0  -7.785669804897391 9.545545601402434 0  -6.574565359772976 13.0078164440985 0  -7.418179809696638 12.89693913285906 0  -6.811601850723011 12.66971200464492 0  -7.048701912143262 12.33161017226022 0  -7.181082742857378 13.2350525339376 0  -7.787494785058373 13.46226635237845 0  -6.577373777681313 16.0079360827118 0  -7.420012761723127 15.89697379796165 0  -6.814134440563963 15.66984031303663 0  -7.050959678683416 15.3317254567517 0  -7.183192109604977 16.2350602038239 0  -7.788902539736619 16.46222911038473 0  -6.580215272458236 19.00710676749659 0  -7.422000003226444 19.11273241538237 0  -6.817278673808764 19.34356956217271 0  -7.054277178262294 19.68007700607339 0  -7.184996707205052 18.77620236471519 0  -7.789888693044946 18.54527726110657 0  -6.587748827619865 27.00684083466647 0  -7.426913048497955 27.11256563546848 0  -6.824069408285728 27.34345304046346 0  -7.060328534817786 27.68007586433307 0  -7.190650912579316 26.77590097590777 0  -7.793659958858407 26.54502317686318 0  -8.274467729871379 19.09599481196181 0  -8.032204554503945 18.8206243436732 0  -8.394879935585061 18.27265925935735 0  -8.637155741222386 18.54802973012883 0  -9 17.99999999998495 0  -8.276727094208239 27.09591094212834 0  -8.035219419106838 26.8204679695117 0  -8.39676644386074 26.27250482421267 0  -8.638286515028012 26.54795410719827 0  -9 25.99999999995395 0  -8.273562400820149 15.9084535065518 0  -8.031206351876323 16.18534551298459 0  -8.394515037697676 16.73109775285785 0  -8.636858472496161 16.45421455227371 0  -9 16.99999999998883 0  -5.768667031654911 30.10293978833952 0  -6.009456115487676 29.82605495182339 0  -5.647477094332058 29.28002396083436 0  -5.406671373125413 29.55725590020355 0  -5.044424362634312 29.00738168066417 0  -8.272719238821225 12.90845074109437 0  -8.030081116882291 13.18535698968954 0  -8.393810439732153 13.73113639387469 0  -8.636436270430695 13.45422895367826 0  -9 13.99999999999401 0  -8.271933375671605 10.09622986803748 0  -8.028827172001048 9.820888046931202 0  -8.39277179115175 9.272771570327453 0  -8.635890541322217 9.548113459632173 0  -9 8.99999999999857 0  -8.270287473688855 4.096092617843465 0  -8.026639266258721 3.820685810828118 0  -8.391421023876219 3.272622583478968 0  -8.635075848560273 3.548030958564164 0  -9 2.999999999998668 0  -8.271046019500377 6.908396812057338 0  -8.027848298863574 7.185288104428754 0  -8.39241381170836 7.731093391231048 0  -8.635599023181401 7.454202917971593 0  -9 7.999999999999485 0  -8.282047619071067 45.90829935234918 0  -8.042523283784766 46.18518485594797 0  -8.401589144398281 46.73105708390908 0  -8.641100848075416 46.45417233463451 0  -9 46.99999999997333 0  -8.282898385557493 48.90842760317646 0  -8.043659678089345 49.18531476363102 0  -8.402301357966149 49.73107948931273 0  -8.641527384732459 49.45420308671548 0  -9 49.99999999997949 0  -5.785144349009351 43.10302870376707 0  -6.02470235394999 42.82603276132831 0  -5.664566131081893 42.27977577138373 0  -5.424993322610622 42.55715897932232 0  -5.064579181191617 42.0070840874367 0  -5.756172150509317 23.9254482380607 0  -6.002965567434931 24.19238674250278 0  -5.643988070308252 24.73510342368634 0  -6.249703895356164 24.45934929870044 0  -5.397228903473262 24.46851531758854 0  -5.038379420002839 25.00735637836206 0  -8.288456155564619 52.08574401604942 0  -8.044586616681297 51.81876111125803 0  -8.40026657466546 51.27591977232031 0  -7.800664859792033 51.55179900841846 0  -8.644150865381034 51.54290222265654 0  -9 50.99999999998153 0  -5.774109958757443 38.09269997548575 0  -6.018909683778832 37.82411522903273 0  -5.660408140648931 37.2830507306647 0  -6.263764093071299 37.55555761629955 0  -5.415589965410085 37.55205356491169 0  -5.056800585468772 37.00675500716216 0  -5.770093676712931 34.92537614476716 0  -6.015832481694029 35.19226197723361 0  -5.658404563163918 35.73488716149541 0  -6.261516298374323 35.45917112043227 0  -5.412695238382276 35.46840327026688 0  -5.055407259263564 36.00702936867796 0  -7.90550761871968 50.50360502343281 0  -7.853075094425354 51.02771129435101 0  -8.452808257039308 50.75178307634697 0  -6.156856405911411 36.50730151437163 0  -6.210318600327875 37.03138341245707 0  -5.6068400742794 36.75833901921684 0  -6.209177079100506 35.98318961140396 0  -5.606180990611026 36.25826179986822 0  -6.005998515940422 25.26798840516236 0  -6.127834689665989 24.86368540787024 0  -5.522213594860389 25.13902134758502 0  -8.037103520313865 25.74847024521155 0  -7.915362845498468 26.14674647743965 0  -8.518575412293274 25.8742363113694 0  -6.969525282428249 34.38129139633848 0  -6.615444487952376 34.92027233605818 0  -6.869227330195178 35.24409481352154 0  -7.223317055275045 34.70517425753152 0  -7.477043588856315 35.02904409592863 0  -7.09709427998796 52.62947226428341 0  -7.448803151469825 52.09067471840093 0  -7.196769008785237 51.76696649257438 0  -6.845068051175621 52.30578616086132 0  -6.592975847238698 51.98212148597064 0  -6.972917061646137 38.6294406616302 0  -6.618416597809579 38.09254149423789 0  -6.871338482685644 37.76727572974573 0  -7.225830651125804 38.30423890488844 0  -7.478809244826707 37.97902168267431 0  -6.960776158919593 23.38133121737294 0  -6.605164482868642 23.9203653646649 0  -6.860037641536985 24.24422099717618 0  -7.215658727347059 23.70523813396182 0  -7.470476464601468 24.0291243423281 0  -7.891386768721471 17.50346205014792 0  -7.840626905445196 18.02438063190139 0  -8.445747580463186 17.75171086997013 0  -7.840154865294584 16.98284961784863 0  -8.445639227734086 17.25174213974945 0  -7.88753299968313 8.503543192969701 0  -7.836591293798424 9.024545092653909 0  -8.443819475091367 8.751772396987109 0  -7.93234879146742 2.418675028633302 0  -7.857624883427475 2.9819614522351 0  -8.466224670750981 2.70934794625533 0  -7.836127764168142 7.982864709618251 0  -8.443713141242956 8.251769099954828 0  -7.855001301553125 49.98290372955707 0  -8.45269900435339 50.25181385311892 0  -6.074212635092563 41.60027067162024 0  -6.169281657064873 42.07468856552431 0  -5.
[...]
<PointData  Scalars="f_29"> 
<DataArray  type="Float64"  Name="f_29"  format="ascii">2.5021508322971093e+02  2.4167524221980005e+02  2.4441337792705920e+02  2.3862003822125126e+02  2.4744153120265631e+02  2.4469813778519386e+02  2.5018341738164895e+02  2.4164209913255576e+02  2.4438068685552764e+02  2.3858598143377762e+02  2.4740830362154378e+02  2.4467829169827979e+02  3.7722598357400449e+02  3.6859998797206441e+02  3.7136415040343854e+02  3.6551166069347346e+02  3.7442393196935200e+02  3.7166668677075086e+02  3.7723275127869630e+02  3.6903345734714202e+02  3.7140135574938648e+02  3.6558108023871171e+02  3.7484432592877181e+02  3.7247456975120059e+02  6.2321475729122437e+02  6.3202702833057754e+02  6.2608486910196632e+02  6.2890250130951245e+02  6.2918175240282858e+02  6.3517340388709260e+02  6.3511621017207551e+02  6.2675829490365004e+02  6.2917321575882488e+02  6.2322888678740958e+02  6.3269231758525859e+02  6.3028174516004867e+02  4.5861305862013330e+02  4.6731797734275585e+02  4.6145147076582015e+02  4.6424478125659459e+02  4.6451812389212438e+02  4.7041516974267046e+02  4.7044360409074920e+02  4.6183897329830961e+02  4.6455887466469682e+02  4.5866429363140293e+02  4.6770892199811306e+02  4.6498281158891916e+02  6.4694314966364664e+02  6.5581761850969326e+02  6.4987133712390676e+02  6.5276656256049228e+02  6.5289863737626115e+02  6.5888755375495703e+02  6.4698367046721307e+02  6.5584676532899459e+02  6.4990256496829568e+02  6.5278562403222099e+02  6.5293466941370332e+02  6.5892417965432730e+02  4.9381183268184236e+02  4.9508582900162247e+02  4.9776375859145168e+02  5.0171791927925841e+02  4.9113535371098357e+02  4.8846049939339372e+02  5.6423577685887756e+02  5.6295257534142468e+02  5.6026359239627050e+02  5.5629273394072209e+02  5.6692628171036006e+02  5.6961414803519619e+02  5.2898787698936087e+02  5.2770443362118499e+02  5.2502764428376327e+02  5.2106746044498857e+02  5.3166623506340761e+02  5.3434363618882310e+02  7.9020411353709761e+01  7.7781315960052538e+01  7.5198141171036994e+01  7.1376751044633238e+01  8.1605233442526554e+01  8.4187872624053611e+01  3.4237742701208992e+02  3.4363784368482811e+02  3.4628541795003821e+02  3.5019636768777906e+02  3.3973313751262134e+02  3.3708903391150830e+02  4.5100431018396783e+01  4.6313096470624266e+01  4.8907219402023912e+01  5.2714690160694268e+01  4.2507485300249861e+01  3.9915704537202480e+01  1.1304086567608680e+02  1.1426084611284092e+02  1.1686961468949384e+02  1.2069866180942419e+02  1.1043329134061248e+02  1.0782800479050267e+02  1.4715055778272875e+02  1.4590504384840543e+02  1.4330728583381770e+02  1.3946488802955571e+02  1.4974955248162945e+02  1.5234686782806236e+02  1.8135367640135320e+02  1.8010783616736896e+02  1.7749919704812118e+02  1.7364603012487188e+02  1.8396374462401059e+02  1.8657110579339346e+02  2.1567381848884247e+02  2.1691057154415441e+02  2.1954118696974842e+02  2.2341070644512388e+02  2.1304637251529778e+02  2.1041916326803664e+02  3.0771757079447605e+02  3.0896123885002129e+02  3.1160964450219217e+02  3.1550323541247610e+02  3.0507129907585943e+02  3.0242411871988270e+02  2.1673807058184454e+02  2.1357969559031196e+02  2.0732397462927673e+02  2.1047509060091778e+02  2.0424869413269732e+02  3.0878908699183000e+02  3.0560684069767910e+02  2.9930152671104690e+02  3.0247666677296252e+02  2.9619218502619310e+02  1.8025707668177594e+02  1.8341338743578262e+02  1.8964733083692104e+02  1.8648815325763076e+02  1.9269125585718058e+02  3.4347221265893694e+02  3.4028190897944592e+02  3.3397390388982188e+02  3.3714719035078917e+02  3.3087533643495760e+02  1.4605200541542308e+02  1.4919873528043743e+02  1.5541165605963701e+02  1.5226919183327723e+02  1.5846193157398562e+02  1.1408928316239688e+02  1.1095947782977333e+02  1.0475926486766328e+02  1.0788198766687184e+02  1.0171075144995835e+02  4.6143079223155134e+01  4.3029672612900441e+01  3.6858905014751969e+01  3.9972266864815808e+01  3.3832870019638570e+01  7.7925563930033448e+01  8.1056138352523718e+01  8.7236278510404517e+01  8.4103433149805142e+01  9.0252913107101605e+01  5.2785757730071680e+02  5.3109982857336774e+02  5.3750328466510769e+02  5.3426521220619372e+02  5.4064835156621064e+02  5.6310725333233461e+02  5.6635998303553333e+02  5.7278538132297820e+02  5.6952977055941813e+02  5.7592466079012388e+02  4.9492082797096333e+02  4.9169206786980936e+02  4.8531148720159865e+02  4.8852260000383541e+02  4.8218386818322648e+02  2.7218560957459943e+02  2.7526815355636370e+02  2.8150699539465000e+02  2.7835045980455237e+02  2.7841745010001557e+02  2.8465228946717656e+02  6.0058378481877355e+02  5.9742686723427255e+02  5.9104034323504845e+02  5.9426860084916530e+02  5.9418953934492527e+02  5.8783199323266092e+02  4.3632999608445368e+02  4.3321243058168619e+02  4.2692339146571589e+02  4.3009315373941268e+02  4.3002097967273380e+02  4.2377727606247475e+02  3.9944333150814737e+02  4.0255903743236297e+02  4.0886009882728399e+02  4.0567465224362064e+02  4.0573105912200134e+02  4.1201850136218650e+02  5.8189540644805231e+02  5.8808400153619039e+02  5.8484150677244008e+02  4.1789013234539578e+02  4.2399344976777832e+02  4.2081396401256347e+02  4.1177755689353535e+02  4.1497263421998827e+02  2.8766974178170176e+02  2.8300766159470470e+02  2.8618045094937492e+02  2.9324359312406432e+02  2.9783470667443459e+02  2.9470153835214410e+02  3.9316870510936741e+02  3.9941978749699706e+02  4.0319263928150912e+02  3.9693891307332996e+02  4.0070981344344710e+02  6.0697835473276575e+02  6.0061993611769537e+02  5.9678966035175949e+02  6.0314509514800375e+02  5.9931321083749970e+02  4.4262292215550895e+02  4.3635315674615811e+02  4.3256903313689503e+02  4.3883559245796459e+02  4.3504896362463410e+02  2.6596754247632055e+02  2.7215678899941673e+02  2.7588947568452323e+02  2.6969802284764705e+02  2.7342848227104548e+02  1.9848546385730774e+02  2.0445413273761196e+02  2.0134471526501548e+02  1.9252388410463649e+02  1.9560711364697886e+02  9.5999437899895028e+01  1.0191588571787838e+02  9.8832436374655927e+01  2.7201095790180069e+01  3.3561002760167206e+01  3.0499631929738744e+01  9.0089455619794180e+01  9.3144680496790571e+01  5.7575032968280038e+02  5.7892862860585501e+02  4.7736963345942627e+02  4.8291564763102292e+02  4.7976133531013897e+02  2.8109820585733752e+02  2.7972528206018575e+02  2.7726197447878866e+02  5.8987640697179631e+02  5.9207215134350565e+02  5.9459428634519372e+02  4.2576788233348077e+02  4.2793052777466539e+02  4.3040720001206444e+02  4.1001264733030393e+02  4.0784469017377148e+02  4.0535984711809283e+02  3.2781204146885142e+02  3.3245084452511946e+02  3.2932923520777166e+02  5.0214121558502740e+02  4.9529620000473813e+02  5.0193059400408589e+02  5.5586807980754384e+02  5.6273870950194942e+02  5.5608024526335043e+02  5.2063923737788070e+02  5.2748991467732083e+02  5.2085325918435012e+02  7.0963070099756436e+01  7.7573194558244538e+01  7.1170311113108667e+01  5.3104047326987931e+01  4.6508928624699948e+01  5.2910056125405738e+01  3.5070637239614592e+02  3.4389215040339269e+02  3.5045326461284304e+02  1.2108992420245877e+02  1.1445790358732157e+02  1.2089502762539122e+02  1.3904948357171659e+02  1.4569629447202351e+02  1.3925753661283298e+02  1.7323327602949692e+02  1.7989991765605345e+02  1.7343951392231708e+02  2.2390027779685661e+02  2.1715723569499005e+02  2.2365763057715128e+02  3.1590489810240427e+02  3.0916271244850384e+02  3.1570491347295120e+02  2.9866767708558450e+02  3.0054551198168497e+02  3.0319265918503822e+02  2.0622654208417470e+02  2.0832260178197618e+02  2.1094971412422140e+02  1.9068739746120443e+02  1.8862997016449557e+02  1.8601974082805899e+02  3.3319452718909895e+02  3.3514223130320130e+02  3.3778513991883932e+02  1.5632497324446427e+02  1.5433631506986401e+02  1.5173696232582594e+02  1.0375780877200064e+02  1.0579258466808449e+02  1.0839875485660920e+02  3.7351101361078747e+01  3.8633219267746945e+01  4.1225659436310437e+01  8.8271450046489448e+01  8.6230379858533169e+01  8.3644852045552724e+01  4.8450300374567627e+02  4.8648177704064989e+02  4.8915735543788963e+02  5.7385595486802890e+02  5.7173579697069442e+02  5.6904497732242248e+02  5.3844219037651146e+02  5.3639325410309470e+02  5.3371408067003085e+02  4.7117616074185969e+02  4.7390518628844603e+02  6.4106758549103961e+02  6.3498647838843681e+02  6.3809620766833405e+02  6.4104559958441700e+02  6.3566344810985663e+02  6.3807765687387734e+02  6.4690595495141974e+02  6.4399271813053974e+02  6.4692687484092255e+02  6.4402243693661956e+02  1.5928137953334458e+01  2.3258432634692788e+01  1.7622733704162819e+01  1.9315814593449279e+01  2.1561207282320620e+01  6.8539810846026069e+02  6.8543213430970366e+02  6.8997721200201011e+02  6.8546469560702167e+02  6.8994514267708166e+02  6.9449350879062558e+02  6.8540008002777836e+02  6.8543396979606359e+02  6.8997849200639791e+02  6.8994652769158267e+02  6.9449350879062558e+02  6.6696424469887609e+02  6.5986441936676101e+02  6.6291400919462376e+02  6.6697663762106265e+02  6.5988241563763438e+02  6.6293750650216043e+02  8.7166465220627387e+00  8.7467611233219227e+00  4.3882138385747282e+00  8.7770376303062623e+00  4.3581367873852637e+00  0.0000000000000000e+00  2.5406462587067335e+02  2.4979919295013394e+02  2.5491894121032885e+02  2.4894631996984043e+02  2.5321668125675703e+02  3.8114075179468563e+02  3.7683239751981853e+02  3.8199662534684029e+02  3.7597737466461894e+02  3.8029050378013261e+02  4.5470202409334445e+02  4.5904538644931648e+02  4.5384779661061833e+02  4.5989732876072839e+02  4.5554947782236991e+02  6.2009717203612354e+02  6.2450118653476920e+02  6.2282433552174052e+02  6.1842845329063778e+02  6.1675108707394099e+02  8.6108636998277692e+00  8.6938621251851984e+00  4.3887857521399036e+00  4.3045965131695514e+00  0.0000000000000000e+00  2.3545121459559411e+02  2.4007580487528082e+02  2.3704808626764412e+02  3.6232657732198521e+02  3.6699668081208068e+02  3.6392855726733694e+02  4.7351702211585632e+02  4.6888030938692691e+02  4.7195668879025487e+02  6.3498335158925136e+02  6.4106608640537593e+02  6.4106145591592201e+02  6.4691307108594560e+02  6.4105524469230795e+02  6.4692246461629531e+02  6.3567021141261534e+02  4.7062272204032990e+02  4.7681435968748127e+02  4.7626149471125905e+02  2.4232430140242366e+02  2.4350014327917242e+02  2.4862332533043465e+02  2.4351010930568626e+02  2.4980862449685225e+02  3.6849947022946327e+02  3.7008172948390353e+02  3.7524902984157666e+02  3.7048652848266113e+02  3.7723430619787092e+02  6.2694512911998027e+02  6.2792550392387034e+02  6.2184677820829177e+02  4.6666246731955925e+02  4.6582272606972026e+02  4.7146268365199205e+02  4.5941125981469531e+02  4.6025275294507031e+02  4.6545530157261464e+02  6.5171690464160258e+02  6.5225206528957358e+02  6.4638863861653090e+02  6.5224254808184048e+02  6.5743391089260535e+02  6.5690747733998921e+02  6.6209689076947552e+02  6.2861361012018790e+02  6.3400223960440042e+02  6.5744259008455913e+02  2.5473188342261500e+02  2.4971685908504949e+02  2.5482343675763801e+02  3.8181237416908391e+02  3.7714431592708951e+02  3.8190330725890107e+02  4.5405840867083873e+02  4.5951909471076982e+02  4.5395741268784627e+02  2.0235764366040357e+02  1.9458416428515588e+02  9.9880294275674899e+01  3.2277955249744110e+01  9.2133156085185220e+01  5.7787345397808542e+02  6.2293872821572006e+02  6.1784349183421978e+02  6.1893139312673929e+02  6.2460483026724205e+02  1.9849604633531490e+02  1.9459098121849769e+02  1.9849150971557913e+02  2.0236103962969642e+02  9.6012564957235057e+01  9.2141347443149172e+01  9.6006637669453639e+01  2.8167203619358038e+01  3.2759406938994836e+01  2.7685434952248343e+01  9.9885028612311473e+01  5.8190367580431553e+02  5.7787899344299115e+02  5.8190028534880821e+02  2.3168977920076932e+02  2.3889090686903901e+02  2.3700612654063082e+02  2.3357317185166906e+02  3.5855431148917626e+02  3.6541502951694895e+02  3.6352614486051846e+02  3.6044249060027238e+02  4.7008702307719233e+02  4.7488714497457585e+02  4.8093483442437133e+02  4.8038291771007852e+02  6.7804053527712495e+02  6.7024009294092457e+02  6.7577971318560446e+02  6.7351957422679720e+02  6.7250296697275587e+02  6.7803989987880891e+02  6.7024404209619456e+02  6.7577995216977024e+02  6.7250683355817716e+02  6.6453411365659701e+02  6.6452723616179946e+02  1.6242976824640016e+02  1.5738608659900299e+02  1.6046416493560599e+02  5.4473470606506396e+02  5.3953685213481037e+02  5.4270967293991441e+02  5.8588747011428666e+02  4.1394754869250198e+02  4.2182932972098246e+02  5.8588981229452622e+02  4.1787565592919651e+02  4.1394398595824947e+02  4.1788211195820082e+02  4.2182196171181170e+02  2.9042176642967183e+02  2.9595580227135093e+02  2.9454494270354411e+02  2.9183220295994875e+02  3.4238767884681050e+02  3.3661486610818025e+02  3.4293277815716078e+02  1.8131560152664531e+02  1.8078679895163376e+02  1.8701008538025289e+02  2.1565316681898281e+02  2.0994338239883217e+02  2.1619607576985865e+02  3.0769669508838109e+02  3.0193962407336267e+02  3.0824351126454724e+02  4.5074766049462418e+01  3.9446065438745812e+01  4.5609657211913017e+01  7.8973953101858783e+01  7.8449821238735197e+01  8.4620659337965677e+01  1.1301373373276742e+02  1.0735469348543830e+02  1.1355215633714795e+02  1.4710833241551197e+02  1.4658061814292191e+02  1.5278882514848942e+02  5.2894780171381183e+02  5.2840320646783232e+02  5.3480156303912929e+02  5.6419881123668358e+02  5.6365353312942705e+02  5.7006828022113757e+02  4.9382414463279639e+02  4.8798521386532980e+02  4.9437562210579705e+02  2.3846019377056624e+02  2.3314403435177982e+02  2.3459294162031333e+02  3.6505222300837397e+02  3.6008004773471532e+02  3.6160236841640909e+02  3.2382330533075049e+02  3.2008303224423196e+02  3.2426260712568057e+02  3.1964377820142522e+02  3.2338464932063664e+02  5.1096989509197402e+02  5.0676815743297209e+02  5.1139150414746206e+02  5.0634278331203939e+02  5.1055164402691588e+02  5.1181433190101865e+02  5.1601459697444909e+02  5.1643933604461574e+02  5.1223847653711266e+02  3.3050233546367735e+02  3.2603590003471970e+02  3.2872853071314080e+02  2.3963499210353638e+02  3.6703819608073695e+02  2.3740542234041271e+01  2.5170458699287613e+02  3.7876304118929750e+02  6.2165395805974595e+02  4.5707740846177381e+02  2.3659768567406348e+02  3.6359622844190733e+02  2.8438231590628948e+02  2.8575946591192172e+02  2.8904612037648758e+02  3.9214835391039037e+02  3.9890672590435184e+02  3.9265850669228871e+02  6.0801067711887151e+02  6.0113705115594996e+02  6.0749672760780868e+02  4.4351992021841642e+02  4.3680187387242927e+02  4.4307311489857619e+02  2.6509536811387164e+02  2.7171842741850594e+02  2.6553138313726629e+02  1.3006889483289780e+02  1.3456295856250748e+02  1.3007731952376326e+02  1.3455468934855585e+02  1.3006034136276998e+02  1.2558296296401348e+02  1.2557429284112555e+02  6.2032707006938047e+01  6.6501761941252298e+01  6.2041130387462751e+01  6.6493377329870683e+01  6.2024319615666471e+01  5.7571806403733987e+01  5.7563413434563799e+01  6.6780923650995862e+02  2.7315157023810616e+02  2.7267263812115573e+02  2.7889181164579514e+02  5.9958547769591485e+02  5.9370134096238928e+02  6.0008392407933798e+02  4.3535686146620418e+02  4.2954598669638028e+02  4.3584477449202501e+02  4.0041544745585742e+02  3.9993271222823279e+02  4.0621070418655552e+02  3.3131213459708664e+02  3.2778688233110643e+02  3.2734823518128405e+02  5.1833258522291203e+02  5.1486143653084366e+02  5.1444121759742882e+02  5.0445425960049096e+02  5.0792285476916175e+02  5.0834528686462124e+02  1.6507131095611410e+02  1.5937660002795914e+02  1.6069748943912941e+02  1.6375173060136686e+02  5.4745578410827113e+02  5.4158759867814376e+02  5.4294828136313242e+02  5.4609636337081565e+02  0.0000000000000000e+00  0.0000000000000000e+00  4.3884632764435239e+00  6.9449350879062558e+02  6.9449350879062558e+02  6.8997851574457968e+02  6.9449350879062558e+02  0.0000000000000000e+00  2.5247915926669930e+02  3.7953023321162198e+02  6.2108255591826685e+02  4.5637451890945147e+02  6.8171866037072220e+02  6.8175088695367504e+02  6.8172052845561984e+02  6.8175190301235705e+02  3.4315944534052278e+01  2.9047307188485416e+01  3.4084322277987937e+01  3.3871617905780901e+01  2.9286057213843563e+01  2.4250158937271308e+01  2.5991295619912199e+02  2.6000713998447111e+02  3.8698012729688020e+02  3.8707244878853595e+02  4.4878883848616238e+02  4.4868322824408563e+02  6.1346845612457878e+02  6.1238129906662493e+02  2.2924374233323894e+02  2.2779474837052069e+02  3.5615191668020691e+02  3.5463156045727249e+02  2.2498659008013533e+01  2.3389184919547091e+01  2.8177875618236826e+01  1.2320799531113236e+01  1.2353462369429698e+01  1.6783263104076983e+02  1.6915061746467640e+02  5.5030240866367330e+02  5.5166019333100166e+02  1.5371844385622211e+01  1.1990004738339524e+01  1.2074141190928938e+01  1.6617193322158053e+02  1.7157659488037976e+02  1.6994302740953265e+02  5.4859154954006954e+02  5.5416118575751477e+02  5.5247700853095864e+02  2.6265100429945790e+02  2.5878420505201530e+02  2.5793322583868280e+02  3.8996218273376502e+02  3.8597862776789839e+02  3.8512551568064890e+02  4.4583127636670946e+02  4.4983893299805902e+02  4.5069043651109484e+02  6.1060603862568382e+02  6.1367884714905006e+02  6.1534863729130643e+02  2.3084513529513467e+02  2.2550024856324771e+02  2.2707509159643377e+02  3.5778406189370980e+02  3.5233716707793167e+02  3.5394920446451260e+02  2.2036760265850923e+01  1.6405549340083393e+01  1.6879760281306343e+01  5.5245856617129300e+02  5.4633889888057661e+02  5.4383740673269983e+02  5.4022134049249257e+02  5.4995747744535436e+02  9.6024319570093027e+01  9.9100997344135621e+01  1.0218920529201414e+02  9.2936644112316273e+01  8.9862048621178971e+01  2.0409851529045244e+02  1.9819169373635944e+02  1.9539138018924405e+02  1.9228885720168694e+02  2.0129752007292603e+02  1.2444821815212255e+02  1.3005480979121126e+02  1.3287021621107240e+02  1.3566501535082946e+02  1.2726275837251032e+02  5.6443349125801426e+01  6.2019335881044796e+01  6.4818816554010851e+01  6.7598597664046721e+01  5.9242243076433567e+01  1.6992595780762801e+02  1.6156050331958733e+02  1.6749900553566064e+02  1.6398779643474919e+02  1.5805146916925852e+02  2.2569842658801505e+02  2.2869580172197058e+02  2.3057241012916097e+02  3.5286954043062184e+02  3.5571313862241760e+02  3.5759615105187999e+02  4.8341811930594105e+02  4.7983837600792737e+02  4.7846908198060061e+02  2.8354113278790800e+02  2.8698235778509684e+02  2.8838981635294971e+02  3.1876354420104065e+02  3.2151471366319146e+02  3.2328665243977071e+02  2.9218799723782558e+02  2.9356115275318837e+02  2.9670241041132704e+02  4.1181799933681498e+02  4.2099633492466660e+02  4.1484612518161606e+02  4.1796688353425242e+02  4.2411731021031613e+02  5.8807148727696745e+02  5.8178592793354414e+02  5.7870317285771796e+02  5.7550481530351772e+02  5.8498808202027726e+02  2.1782738616408704e+01  2.6210710492786802e+01  2.2031796503752585e+02  2.2191762037488868e+02  3.1234674250677807e+02  3.1756991333594078e+02  3.1401163932673740e+02  3.1922222379791901e+02  1.1758919547513909e+02  1.2272533918748810e+02  1.1922355959782966e+02  1.2434173427431611e+02  4.9853101269520022e+02  5.0384075013400411e+02  5.0022002428914163e+02  5.0551037467387732e+02  1.4255071433393476e+02  1.3739425131214887e+02  1.4089499151650065e+02  1.3575817063523601e+02  5.5948822525673972e+02  5.5778018314207884e+02  5.2424852902127463e+02  5.1893549530728137e+02  5.2254441518409055e+02  5.1725773345885079e+02  7.4444523717801090e+01  6.9316798094692828e+01  7.2797432231466388e+01  6.7690234199056817e+01  4.9623094370133323e+01  5.4730743518982379e+01  5.1248939932971005e+01  5.6338247666687742e+01  1.7674572096556102e+02  1.7508811144162920e+02  3.4708893491401830e+02  3.4870915159003766e+02  3.9412874583646123e+02  3.9048627075066855e+02  3.8884544222040626e+02  3.9579547908501161e+02  4.4165767280459170e+02  4.4527195228701089e+02  4.4700231001704282e+02  4.3992371036309009e+02  6.0597681123398081e+02  6.0970043512250936e+02  6.1135762261568573e+02  6.0429583421951941e