<?xml version="1.0"?>
<VTKFile type="UnstructuredGrid"  version="0.1"  >
<UnstructuredGrid>
<Piece  NumberOfPoints="2690" NumberOfCells="4864">
<Points>
<DataArray  type="Float64"  NumberOfComponents="3"  format="ascii">-5.014923349475938 22.00325745655683 0  -5.615398115000393 21.26579262801287 0  -5.01462219874842 21.50352587483423 0  -5.014284071248379 21.00328227608618 0  -5.615686634006284 21.76585016168216 0  -6.216467726424186 21.52791508087738 0  -9 21.99999999996945 0  -8.399053488511749 21.26318117666831 0  -9 21.49999999997139 0  -9 20.99999999997333 0  -8.399104853593265 21.76317732345644 0  -7.79816104894671 21.52634624058928 0  -9 32.9999999999446 0  -8.400184403831565 32.26317054099026 0  -9 32.49999999994358 0  -9 31.99999999994255 0  -8.400235826386334 32.76317144350485 0  -7.80042284421915 32.52633532559703 0  -5.022432595134439 33.00352465707942 0  -5.538816763604554 32.2998461933542 0  -5.022115897092339 32.50399144214637 0  -5.021767045975936 32.00341428181907 0  -5.539113160061141 32.79993565568036 0  -6.055811712809363 32.59584169761239 0  -5.03683734366358 54.00337387213092 0  -5.634804231337412 54.74071339239853 0  -5.634520971360136 54.24085301124107 0  -6.232177656367818 54.47784201531984 0  -5.037156862104614 54.50361108030354 0  -5.037465379297144 55.003404473168 0  -9 54.99999999998974 0  -8.474835502317388 54.29668995470335 0  -9 54.49999999998872 0  -9 53.99999999998769 0  -8.474879679738716 54.79667638857696 0  -7.949724050761323 54.59335705097522 0  -9 39.99999999995897 0  -8.401057183572865 40.73816041586998 0  -8.401005776767501 40.23816103515411 0  -7.802060487776862 40.47631259197124 0  -9 40.49999999996 0  -9 40.99999999996102 0  -5.027899194683126 41.00312705462125 0  -5.599904556826742 40.2711815830023 0  -5.027586185779173 40.50362888557125 0  -5.027260447123504 40.00352290289794 0  -5.600194042918622 40.77112825377031 0  -6.172515496466014 40.5385602841026 0  -9 55.99999999999179 0  -8.427281600709982 56.74393788597644 0  -8.427237789595365 56.24392940847233 0  -7.854521510978432 56.48785839963715 0  -9 56.49999999999282 0  -9 56.99999999999384 0  -5.038197024195763 56.00322711824034 0  -5.611364068594238 56.74655561120245 0  -5.611081544765298 56.24654230182578 0  -6.183929939897455 56.48945817187616 0  -5.038536467939777 56.50371894161772 0  -5.038843612552797 57.00341396278603 0  -7.44893768937311 43.00184381896209 0  -6.60730981706038 43.11104961917134 0  -7.212282310441637 43.33949344208014 0  -6.975654308866432 43.67714592910596 0  -6.843938801369924 42.77338009057309 0  -6.238891576451387 42.54491632991848 0  -6.582838023624194 49.00347369092363 0  -7.423613577480792 48.89407363404867 0  -6.819224959478908 48.66579934460663 0  -7.055640122529225 48.3281149955067 0  -7.187200177942699 49.23174081928159 0  -7.791514503396555 49.46003293823826 0  -6.581585674695988 46.00326424580718 0  -7.422797687464647 45.89393926616982 0  -6.818096596853453 45.66555304248071 0  -7.054635440555894 45.32785861880604 0  -7.186260946329471 46.23163158463369 0  -7.790888329410707 46.45998649888813 0  -6.565387337608235 7.003386778821213 0  -7.41223437962315 6.894034645034988 0  -6.803484262566976 6.665710371564039 0  -7.041609062385239 6.328034843902082 0  -7.174111714423196 7.231709876638737 0  -7.782788468760114 7.460030205871144 0  -7.445470171657554 30.00182307269218 0  -6.601960087944049 30.11100405138404 0  -7.20828579418225 30.3394233436267 0  -6.971129015934284 30.67701265336148 0  -6.839118358845314 29.7733930674503 0  -6.232717967306818 29.54498046124916 0  -6.564169061126257 4.003225863194569 0  -7.411503129559183 4.110275071354186 0  -6.802633304583672 4.340275918072041 0  -7.04107108353401 4.677315122017352 0  -7.173067064262509 3.77322899793963 0  -7.782006108947319 3.543253701251801 0  -6.56662580182489 10.00341732194425 0  -7.413099423546957 10.11040300434705 0  -6.804852223817696 10.34042448891275 0  -7.043051698860755 10.6774316566503 0  -7.174898144567158 9.773398908331719 0  -7.78321805417871 9.543376817461734 0  -6.567866897961311 13.00344556893636 0  -7.413850387876568 12.89408205346064 0  -6.805720060695341 12.66577027573777 0  -7.043600939276162 12.32809617012002 0  -7.175971102897484 13.23176136442329 0  -7.784028091351449 13.46006717032691 0  -6.569111837711178 16.00349837282169 0  -7.414662314878291 15.89409719178784 0  -6.80684272367363 15.66582686030253 0  -7.044601600589834 15.32814696144701 0  -7.176905214689895 16.23176456018522 0  -7.784651050183998 16.46005053222929 0  -6.57036151666635 19.00313184976378 0  -7.415536442490579 19.11018093933489 0  -6.808225005844403 19.34008382209087 0  -7.046060378695988 19.67705544610565 0  -7.177699191745831 18.77319947551019 0  -7.785084959368236 18.54325788285257 0  -6.573684818683246 27.00301410481343 0  -7.41770356197451 27.11010697000417 0  -6.81122193547309 27.34003187838672 0  -7.048731569996927 27.67705428836316 0  -7.180192219503123 26.77306616019079 0  -7.786747284140556 26.54314559095839 0  -8.271498494525513 19.09482364832017 0  -8.028303276965143 18.81903560723005 0  -8.392514219123715 18.27163803275292 0  -8.635714990067621 18.54742605715813 0  -9 17.99999999998495 0  -8.272494955730735 27.0947864693297 0  -8.029632588155495 26.81896642447446 0  -8.393345544262656 26.2715698290503 0  -8.636213424812116 26.54739264279918 0  -9 25.99999999995395 0  -8.271100184837378 15.90713697481192 0  -8.02786410860532 16.18359560912374 0  -8.392353662613891 16.73001782130185 0  -8.635584198008196 16.4535630828826 0  -9 16.99999999998883 0  -5.747600115734884 30.09788299260156 0  -5.990146682370368 29.82142726818415 0  -5.626242718343811 29.27487997058423 0  -5.383686721556372 29.55148838583073 0  -5.019681623344646 29.00325152377381 0  -8.270726837575392 12.90713586947004 0  -8.027365999741754 13.18360083142477 0  -8.392042069385429 13.73003500309369 0  -8.635397402211815 13.45356951359755 0  -9 13.99999999999401 0  -8.27037804038612 10.09492764280067 0  -8.026809438507325 9.819152372371956 0  -8.391581054931875 9.271687858397998 0  -8.635155177151441 9.547463165957383 0  -9 8.99999999999857 0  -8.269646452045993 4.094867106626059 0  -8.025836734516432 3.81906314512608 0  -8.390980274647537 3.271622102324379 0  -8.634792900403179 3.547426763035673 0  -9 2.999999999998668 0  -8.269984083704179 6.90711214117381 0  -8.026374875446049 7.183570522852999 0  -8.391422136585074 7.730016089510204 0  -8.635025759001524 7.45355806059283 0  -9 7.999999999999485 0  -8.27484072540722 45.90706820683837 0  -8.032853028885457 46.18352360438652 0  -8.395472335622635 46.72999908567113 0  -8.637454439608247 46.45354401819716 0  -9 46.99999999997333 0  -8.275215741415522 48.90712427321466 0  -8.033353550230572 49.18358039988968 0  -8.395785465252644 49.73000882124841 0  -8.637642135757549 49.45355743037682 0  -9 49.99999999997949 0  -5.754858186485494 43.09792164662279 0  -5.996862333326622 42.82141697453065 0  -5.633769100433576 42.27476994799699 0  -5.391756115336613 42.55144471865953 0  -5.028558805943684 42.00312136971097 0  -5.739434881541475 23.92034373470592 0  -5.987325785902412 24.18772863425447 0  -5.626071059628512 24.72995610582313 0  -6.235192485429481 24.45512393215069 0  -5.378193169236783 24.46272588653183 0  -5.017013024409893 25.00324404816918 0  -8.280314463136092 52.08458708666435 0  -8.033713387839892 51.81718287031217 0  -8.393516067192351 51.27490276528038 0  -7.787089554236013 51.54978779937825 0  -8.640123600640852 51.54230677663957 0  -9 50.99999999998153 0  -5.747345092138015 38.08765093825809 0  -5.994356654558758 37.81954085355714 0  -5.633311840638436 37.2780414604282 0  -6.241392403213122 37.55144349341256 0  -5.38628994787068 37.54633497250244 0  -5.025136396197746 37.00297607683706 0  -5.745576705062988 34.92031139736153 0  -5.993001836179104 35.18767319061545 0  -5.632430181445516 35.72986066728087 0  -6.240402788610189 35.45504515527774 0  -5.385016035443977 35.46267599064569 0  -5.024524061242938 36.00310265313631 0  -7.893382416938848 50.50168555252402 0  -7.84023119738362 51.02574074552615 0  -8.446715006494694 50.75083421821437 0  -6.134274826544566 36.50321833800316 0  -6.187837363207769 37.02731046226477 0  -5.579704635427359 36.75367553825571 0  -6.187334949237431 35.97911171285652 0  -5.579415810532782 36.25364329820602 0  -5.989676917598634 25.26349881356517 0  -6.112427182911008 24.85931891904825 0  -5.503349038392619 25.13396609503457 0  -8.031753371973625 25.7469851164318 0  -7.909241968356436 26.14506525658854 0  -8.515887184192318 25.87349307396725 0  -6.954361479295709 34.37827688078714 0  -6.597348493574781 34.91667872589081 0  -6.852902885966575 35.2409076070653 0  -7.209919672839781 34.70253215172053 0  -7.465449158058434 35.0267817115835 0  -7.075082081773084 52.6264648482029 0  -7.431052650191708 52.08814342866488 0  -7.176269577052896 51.76396489172082 0  -6.820302539177297 52.30229589534829 0  -6.565494324110998 51.97813647580211 0  -6.955855181305489 38.62645128298499 0  -6.598657253929582 38.08896599388174 0  -6.853832503405096 37.76410167203637 0  -7.211026605395878 38.30161485735641 0  -7.466226700530051 37.97677177339197 0  -6.950501495221638 23.37829474417224 0  -6.59281358296739 23.91672009391169 0  -6.848849457964931 24.24096347199494 0  -7.206541270609726 23.70256058183937 0  -7.462552456033086 24.02681728918798 0  -7.887241550228379 17.50152586790047 0  -7.836158593249223 18.02239669843027 0  -8.443644616380034 17.75075401840126 0  -7.835950849758659 16.98078998228155 0  -8.443596937904802 17.25076783536943 0  -7.885534044649421 8.501562079629146 0  -7.834371516330451 9.022469749755331 0  -8.442790605656777 8.75078139944338 0  -7.931735581100734 2.416953050756112 0  -7.856861094913428 2.980099219591641 0  -8.46589025409663 2.708481154345338 0  -7.834165753009652 7.980796998368254 0  -8.442743401452313 8.250779937816453 0  -7.842453109144199 49.98086117312026 0  -8.446667262995154 50.25084772286577 0  -6.047645553424865 41.59626022815288 0  -6.143275622833936 42.0706016
[...]
<PointData  Scalars="f_29"> 
<DataArray  type="Float64"  Name="f_29"  format="ascii">2.5427599777843625e+02  2.4564109826678387e+02  2.4841120311181149e+02  2.4255354623101508e+02  2.5146983042595519e+02  2.4870092553176335e+02  2.5426987938587476e+02  2.4563124256710105e+02  2.4840399535054732e+02  2.4254613805082434e+02  2.5145941335631858e+02  2.4869504568614897e+02  3.8229769475936786e+02  3.7362109985287810e+02  3.7640420136299542e+02  3.7051985366791308e+02  3.7947543433784745e+02  3.7669942991546873e+02  3.8228083373495008e+02  3.7403728067575815e+02  3.7641923646412368e+02  3.7056574659092945e+02  3.7987794945459461e+02  3.7749870070722528e+02  6.2818813085759939e+02  6.3695162983733860e+02  6.3104256460244017e+02  6.3384785695609287e+02  6.3412265294119175e+02  6.4008004649525060e+02  6.4004476472572276e+02  6.3173256232112385e+02  6.3413678274167876e+02  6.2822684994932263e+02  6.3763119990501491e+02  6.3523130333903350e+02  4.6394149590054531e+02  4.7265436469776409e+02  4.6678023245356837e+02  4.6957258262663385e+02  4.6985512745367544e+02  4.7576012233096765e+02  4.7576269389553210e+02  4.6714861815853510e+02  4.6987234211975772e+02  4.6397102492189168e+02  4.7302396172129005e+02  4.7029865199452200e+02  6.5179656157788884e+02  6.6061030541432478e+02  6.5470268293664810e+02  6.5757500255186631e+02  6.5771340456759310e+02  6.6366419632234079e+02  6.5181723270343889e+02  6.6062379355893972e+02  6.5471749368834389e+02  6.5758410313250818e+02  6.5773065821673333e+02  6.6368111297904773e+02  4.9915948004513416e+02  5.0042994919934625e+02  5.0311002535375883e+02  5.0706187903301964e+02  4.9647954310353612e+02  4.9380172483047858e+02  5.6948001539901361e+02  5.6820638640657683e+02  5.6552116969744100e+02  5.6156296571071948e+02  5.7216592191963525e+02  5.7484935056913446e+02  5.3430872867110202e+02  5.3303209645886568e+02  5.3035421109691595e+02  5.2639945386001057e+02  5.3698700111105177e+02  5.3966467159925367e+02  8.0622451574161161e+01  7.9366562954408991e+01  7.6730822007049412e+01  7.2839652792624364e+01  8.3259037531547605e+01  8.5893658847851313e+01  3.4723969192842878e+02  3.4850468488604616e+02  3.5117097206204056e+02  3.5510431945867583e+02  3.4457535301794155e+02  3.4191098588130529e+02  4.6049281482444570e+01  4.7290986955067631e+01  4.9933372852299669e+01  5.3817817452387843e+01  4.3406982731889507e+01  4.0766269465492989e+01  1.1524200409562356e+02  1.1648917886393818e+02  1.1913646305477828e+02  1.2303092281341131e+02  1.1259515060318940e+02  1.0995065844796228e+02  1.4989965915594516e+02  1.4864180747649235e+02  1.4599900031494349e+02  1.4209880990040807e+02  1.5254297874604339e+02  1.5518476423428439e+02  1.8459970296908369e+02  1.8334292040886817e+02  1.8069394117930020e+02  1.7678883741531340e+02  1.8724929734695894e+02  1.8989632260202970e+02  2.1935856653430497e+02  2.2061445773625047e+02  2.2327210157039258e+02  2.2718722868967635e+02  2.1670283776510485e+02  2.1404803221670110e+02  3.1232714954404474e+02  3.1358451256705337e+02  3.1625039749233332e+02  3.2017477788731759e+02  3.0966192694653455e+02  3.0699648086136790e+02  2.2044607472089066e+02  2.1724821848504226e+02  2.1092006128821205e+02  2.1411140513310016e+02  2.0781252040639407e+02  3.1341663019166009e+02  3.1020685455505253e+02  3.0385224799738631e+02  3.0705564282472301e+02  3.0072159089122101e+02  1.8350118524242578e+02  1.8669808277856043e+02  1.9301849678619402e+02  1.8981945941467777e+02  1.9610691098130437e+02  3.4833774696859439e+02  3.4512535049084659e+02  3.3877027920734525e+02  3.4197195681620809e+02  3.3564517922097127e+02  1.4879873331640417e+02  1.5199108846851476e+02  1.5830107866129575e+02  1.5511381701069215e+02  1.6140224995120013e+02  1.1632240485499939e+02  1.1313741964138461e+02  1.0683486577987436e+02  1.1001335741395553e+02  1.0373948493094606e+02  4.7123831933037479e+01  4.3945362637963058e+01  3.7651428241689644e+01  4.0830636787521328e+01  3.4567617431493986e+01  7.9520622496618373e+01  8.2706616133716906e+01  8.9002735842711985e+01  8.5815154613572091e+01  9.2078725015846643e+01  5.3319172378147107e+02  5.3642744819372206e+02  5.4282389095788028e+02  5.3959329198361536e+02  5.4596798915448107e+02  5.6836710235328985e+02  5.7160755061031125e+02  5.7801452022429010e+02  5.7477190906614328e+02  5.8114609165549359e+02  5.0026480360717670e+02  4.9703446720077352e+02  4.9064805487449399e+02  4.9386705615634531e+02  4.8751424888859623e+02  2.7647985267007886e+02  2.7959067876137374e+02  2.8588207075073075e+02  2.8270163688537656e+02  2.8277136688633198e+02  2.8904949168908803e+02  6.0569697930897939e+02  6.0255291178663890e+02  5.9619851683529521e+02  5.9940730171002997e+02  5.9933556662563592e+02  5.9301029618159600e+02  4.4160519019345463e+02  4.3847858215538491e+02  4.3216753983562523e+02  4.3535048532468397e+02  4.3528154763604181e+02  4.2900694361891220e+02  4.0460027242166956e+02  4.0772696420630183e+02  4.1404588165457835e+02  4.1085380652335124e+02  4.1091274751193555e+02  4.1720710864033896e+02  5.8708705272684426e+02  5.9324974271468488e+02  5.9002532181911647e+02  4.2310460131708669e+02  4.2923014918623886e+02  4.2603324028875898e+02  4.1697510683452043e+02  4.2017476940627330e+02  2.9210012272866351e+02  2.8739894264293440e+02  2.9059332914438022e+02  2.9773945266011305e+02  3.0236915898155200e+02  2.9921351164781902e+02  3.9830166540575266e+02  4.0457760863777480e+02  4.0836575501251309e+02  4.0208876083064024e+02  4.0587612642954400e+02  6.1205218166827967e+02  6.0572682493521211e+02  6.0191278516863497e+02  6.0823621379910082e+02  6.0442089744861539e+02  4.4791362801495171e+02  4.4162892465945629e+02  4.3783593149643679e+02  4.4411901175151166e+02  4.4032469439508020e+02  2.7020295949559716e+02  2.7645183687699443e+02  2.8022093480594634e+02  2.7397143441347504e+02  2.7773942700328462e+02  2.0196707893413341e+02  2.0800998691619063e+02  2.0486641896771323e+02  1.9592777827223878e+02  1.9905611134672282e+02  9.7917958351177148e+01  1.0393701691301168e+02  1.0080507293424348e+02  2.7789105107850421e+01  3.4280991054649171e+01  3.1160549238823460e+01  9.1902050421382839e+01  9.5017278583896996e+01  5.8096424074550737e+02  5.8413566290773986e+02  4.8269859013674483e+02  4.8825162239751086e+02  4.8508926307133453e+02  2.8547828879595289e+02  2.8409062145262959e+02  2.8160795105273280e+02  5.9502898913384922e+02  5.9721776206545258e+02  5.9972463642788568e+02  4.3101547384181822e+02  4.3318265128862731e+02  4.3566957053520031e+02  4.1520990430268182e+02  4.1303259280891228e+02  4.1054233792358332e+02  3.3256436129869553e+02  3.3723863441194447e+02  3.3408843925937401e+02  5.0748063954871276e+02  5.0063927970310328e+02  5.0727195639358058e+02  5.6114520071757249e+02  5.6799599391565198e+02  5.6135358663446698e+02  5.2597793421933613e+02  5.3282076593804641e+02  5.2618828582083358e+02  7.2424509882869515e+01  7.9157747683451603e+01  7.2632148108264147e+01  5.4220531436386118e+01  4.7493469446390705e+01  5.4019514030149395e+01  3.5561366849818501e+02  3.4875954705598508e+02  3.5536061849961038e+02  1.2343571366031831e+02  1.1669299153018314e+02  1.2323375984977744e+02  1.4168390543963804e+02  1.4843331263879355e+02  1.4189138024135045e+02  1.7637656653283892e+02  1.8313522294025168e+02  1.7658222683267354e+02  2.2768800228225857e+02  2.2086665261661335e+02  2.2743943209882443e+02  3.2058468455424406e+02  3.1378997068089922e+02  3.2038025634729064e+02  3.0320389761705263e+02  3.0509977125480032e+02  3.0776603041627635e+02  2.0979922195735020e+02  2.1192329692785682e+02  2.1457880325755428e+02  1.9406145349611748e+02  1.9197946853012922e+02  1.8933011256267596e+02  3.3799293888724895e+02  3.3995199799723224e+02  3.4261608852822496e+02  1.5921640004383059e+02  1.5720090043793945e+02  1.5455760547253669e+02  1.0580465723104729e+02  1.0787715416446981e+02  1.1052324795906158e+02  3.8144176109572527e+01  3.9454804044286703e+01  4.2096979340489611e+01  9.0045364684175098e+01  8.7970110315180918e+01  8.5333242316352795e+01  4.8984425850503465e+02  4.9182269757318539e+02  4.9450246486389136e+02  5.7907120786997314e+02  5.7696088585921314e+02  5.7427506790663313e+02  5.4375146122360229e+02  5.4170833309860586e+02  5.3902961737764178e+02  4.7649820675055929e+02  4.7922934198913225e+02  6.4594182102521393e+02  6.3989603718773981e+02  6.4298860879344295e+02  6.4593056577663799e+02  6.4058086672580282e+02  6.4298439249239914e+02  6.5175288278991059e+02  6.4886157974912862e+02  6.5176311294427080e+02  6.4887546887233862e+02  1.6275526790529206e+01  2.3760711469302784e+01  1.8004837116909624e+01  1.9733032161173163e+01  2.2029231763751945e+01  6.8997313363729870e+02  6.9000567786727652e+02  6.9451343192087495e+02  6.9003709838731322e+02  6.9448233275380551e+02  6.9899213089963428e+02  6.8997412033867897e+02  6.9000666699749195e+02  6.9451427959140983e+02  6.9448310819530150e+02  6.9899213089963428e+02  6.7167782392280390e+02  6.6462618904965336e+02  6.6765880297574256e+02  6.7168337045528210e+02  6.6463465408953539e+02  6.6766954645203271e+02  8.9092536224422787e+00  8.9383388387829115e+00  4.4844261023955978e+00  8.9685369756656286e+00  4.4545920255287665e+00  0.0000000000000000e+00  2.5818035463908723e+02  2.5386771945047758e+02  2.5903928957046799e+02  2.5301065051220783e+02  2.5732812984672830e+02  3.8622059733678799e+02  3.8188895897154748e+02  3.8707668344053690e+02  3.8103392976945901e+02  3.8537041251890741e+02  4.6001610273677892e+02  4.6436386956283962e+02  4.5915689104057014e+02  4.6522109088600814e+02  4.6086862541488142e+02  6.2509334455966041e+02  6.2947133005010971e+02  6.2780846368421487e+02  6.2343717061213215e+02  6.2177238661431011e+02  8.8003767125172896e+00  8.8839180697522355e+00  4.4849630513756740e+00  4.3997826937492199e+00  0.0000000000000000e+00  2.3935265233778509e+02  2.4402753462896280e+02  2.4096407008626534e+02  3.6731052673670115e+02  3.7200525224490036e+02  3.6892483256931678e+02  4.7885691136508802e+02  4.7421431138188234e+02  4.7729878539224927e+02  6.3989574086123616e+02  6.4594121682683294e+02  6.4593929298304215e+02  6.5175665614219338e+02  6.4593623099935553e+02  6.5176119321149883e+02  6.4058403990415036e+02  4.7594795881877451e+02  4.8214577237327700e+02  4.8159597077112738e+02  2.4630834599780383e+02  2.4750039723903703e+02  2.5267567899687160e+02  2.4750339341800057e+02  2.5387078290187480e+02  3.7350912438153341e+02  3.7510272810560258e+02  3.8029426075898073e+02  3.7550310579987564e+02  3.8228689099333855e+02  6.3190873997102256e+02  6.3287985761351854e+02  6.2683937708718065e+02  4.7198679612532180e+02  4.7114262771508635e+02  4.7679205260144158e+02  4.6472446458578241e+02  4.6556969845443211e+02  4.7078128855020776e+02  6.5652703452593926e+02  6.5705621900051221e+02  6.5123285435681919e+02  6.5705163580993121e+02  6.6220911501502167e+02  6.6168363658085252e+02  6.6683881859507039e+02  6.3357002783899236e+02  6.3892329307768750e+02  6.6221324796062424e+02  2.5884434213702662e+02  2.5377376182263976e+02  2.5893912949117885e+02  3.8688579868674776e+02  3.8219280519730938e+02  3.8697949425075973e+02  4.5936258695053897e+02  4.6482866947469762e+02  4.5926345406288073e+02  2.0588498527053434e+02  1.9801226670917444e+02  1.0186324272333412e+02  3.2968965707574668e+01  9.3979537346981559e+01  5.8307712366738326e+02  6.2792860889719429e+02  6.2286151693231977e+02  6.2394696869349355e+02  6.2958771225169266e+02  2.0197099344739851e+02  1.9801569895495288e+02  2.0196953230950433e+02  2.0588506832374986e+02  9.7924055938837853e+01  9.3984258869239184e+01  9.7921355107123176e+01  2.8769887783136337e+01  3.3457388979650837e+01  2.8280524629463972e+01  1.0186442892776834e+02  5.8708854955923778e+02  5.8307930673280828e+02  5.8708828819744360e+02  2.3555795167937410e+02  2.4283314104488838e+02  2.4093212120526289e+02  2.3745773044992620e+02  3.6351008210722654e+02  3.7041205139723286e+02  3.6850888521782213e+02  3.6541227536747277e+02  4.7541925629159766e+02  4.8022418503832739e+02  4.8627055064363276e+02  4.8572091022996887e+02  6.8267149003456575e+02  6.7492820354086973e+02  6.8042682223453778e+02  6.7818278437593949e+02  6.7717573778312851e+02  6.8267110403173854e+02  6.7492994743632755e+02  6.8042689033162401e+02  6.7717728849975765e+02  6.6925810920991057e+02  6.6925490107311305e+02  1.6541930495528538e+02  1.6030017381863371e+02  1.6342921669470849e+02  5.5003879061633768e+02  5.4484987543371290e+02  5.4802172199619770e+02  5.9105982335861574e+02  4.1915437454653534e+02  4.2706139537990128e+02  5.9105872556953693e+02  4.2309851875358851e+02  4.1915401211961347e+02  4.2310125682607281e+02  4.2705718237890602e+02  2.9488535066330246e+02  3.0047183896454584e+02  2.9904491430139581e+02  2.9631194618407471e+02  3.4724472237468797e+02  3.4143533669596872e+02  3.4779228833680327e+02  1.8458055520891494e+02  1.8404101547236408e+02  1.9035122164013558e+02  2.1935417308866977e+02  2.1357622223245289e+02  2.1990027608760136e+02  3.1232093158902262e+02  3.0651691571321169e+02  3.1286909207500463e+02  4.6039958511987038e+01  4.0296466261053048e+01  4.6582338168514660e+01  8.0594825981310137e+01  8.0057499970538998e+01  8.6344757544054247e+01  1.1523544170174458e+02  1.0948020026666391e+02  1.1577933123033790e+02  1.4987798028056076e+02  1.4933856155430695e+02  1.5564432064985735e+02  5.3428663965265912e+02  5.3373942388761895e+02  5.4013139275379638e+02  5.6946143049317425e+02  5.6891442464169745e+02  5.7531118347045708e+02  4.9916715665364580e+02  4.9332878812659129e+02  4.9971740161033921e+02  2.4240667439782356e+02  2.3703205565848745e+02  2.3850140914095695e+02  3.7003963605146322e+02  3.6504043930658088e+02  3.6656788502548943e+02  3.2856049492862559e+02  3.2479129980781443e+02  3.2899858761656225e+02  3.2435302710983075e+02  3.2812301126829141e+02  5.1630352014462744e+02  5.1210661402248945e+02  5.1673028267445818e+02  5.1167703037622755e+02  5.1587781585433697e+02  5.1715771874040036e+02  5.2135359383359480e+02  5.2178284229328892e+02  5.1758635851189297e+02  3.3527830260270775e+02  3.3078040982690914e+02  3.3349578123302706e+02  2.4359773707635182e+02  3.7203299384834850e+02  2.4250675272674250e+01  2.5580345634899774e+02  3.8383872614559795e+02  6.2663792885909334e+02  4.6240082712525140e+02  2.4053221799007150e+02  3.6856964227483201e+02  2.8878840367649610e+02  2.9018137928176952e+02  2.9349328981180832e+02  3.9727381171118577e+02  4.0406163858221436e+02  3.9778727861102544e+02  6.1308400802636038e+02  6.0624411364897810e+02  6.1256992474289984e+02  4.4880961114362731e+02  4.4207797946286985e+02  4.4836290694665001e+02  2.6931902609752990e+02  2.7600829718512182e+02  2.6976042993416127e+02  1.3255934092162636e+02  1.3712327301416582e+02  1.3256291543109140e+02  1.3711987846054680e+02  1.3255569647058667e+02  1.2799892307826225e+02  1.2799515068851292e+02  6.3322414568211357e+01  6.7875506794065103e+01  6.3326648810570823e+01  6.7871437783252432e+01  6.3318315424463229e+01  5.8773189965071026e+01  5.8768940901672764e+01  6.7251239994380819e+02  2.7745417747648656e+02  2.7696968201696814e+02  2.8324903184106671e+02  6.0470908458845724e+02  5.9885269448189194e+02  6.0520200741615258e+02  4.4062872837161302e+02  4.3480444649522019e+02  4.4111688479965392e+02  4.0557527022031383e+02  4.0508972870327995e+02  4.1139272655130401e+02  3.3610379260471308e+02  3.3255095774195883e+02  3.3211347420826314e+02  5.2365978662484213e+02  5.2019426598450798e+02  5.1976898171969356e+02  5.0980345778156567e+02  5.1326717058531142e+02  5.1369395035317700e+02  1.6809121960268837e+02  1.6231721767143122e+02  1.6365339119986461e+02  1.6675612092028055e+02  5.5274705201559777e+02  5.4689437220731895e+02  5.4824884572638700e+02  5.5139370949711565e+02  0.0000000000000000e+00  0.0000000000000000e+00  4.4843859666514154e+00  6.9899213089963428e+02  6.9899213089963428e+02  6.9451428481946823e+02  6.9899213089963428e+02  0.0000000000000000e+00  2.5656480304854722e+02  3.8458980933776803e+02  6.2608924798692738e+02  4.6167907431384901e+02  6.8632248162753467e+02  6.8635291786509447e+02  6.8632336734655314e+02  6.8635354009750120e+02  3.5040903454865877e+01  2.9659158182332845e+01  3.4800840977811063e+01  3.4581343666128497e+01  2.9905766949873005e+01  2.4766331284564842e+01  2.6408136364965094e+02  2.6417912127939661e+02  3.9207976811342360e+02  3.9217525882673129e+02  4.5408598892765178e+02  4.5398274985441969e+02  6.1851323655300780e+02  6.1742898712715396e+02  2.3309201990301793e+02  2.3162310514774305e+02  3.6108832871268163e+02  3.5956281858251481e+02  2.2981202697288044e+01  2.3886039463285925e+01  2.8775476661094778e+01  1.2591111103145806e+01  1.2622804186129047e+01  1.7089952323447972e+02  1.7223261376732930e+02  5.5559356531984463e+02  5.5694476228828114e+02  1.5705036558421018e+01  1.2251733288520988e+01  1.2336795015311742e+01  1.6922044244145627e+02  1.7470134177557622e+02  1.7305012922087178e+02  5.5389174300642458e+02  5.5944723954296637e+02  5.5777315837477772e+02  2.6685795328312690e+02  2.6294828156886695e+02  2.6209258612871707e+02  3.9508561771014865e+02  3.9108075645513929e+02  3.9022739389330354e+02  4.5113245630666654e+02  4.5514447486583316e+02  4.5600079947472074e+02  6.1565635075452747e+02  6.1871473546451250e+02  6.2037314363215137e+02  2.3471627508594150e+02  2.2931044829399229e+02  2.3090723890440853e+02  3.6272707970742795e+02  3.5725021958437833e+02  3.5886590591138298e+02  2.2516977431238647e+01  1.6764697524533847e+01  1.7251284117868767e+01  5.5773366668657832e+02  5.5162661352726309e+02  5.4913322223584100e+02  5.4552087527134074e+02  5.5524061383243054e+02  9.7929338087942170e+01  1.0106339673430435e+02  1.0420227252538285e+02  9.4790356343479473e+01  9.1657620164848367e+01  2.0763904866466768e+02  2.0165661801295190e+02  1.9882322479478324e+02  1.9567674039258978e+02  2.0480531140116148e+02  1.2683576032072166e+02  1.3253347374591601e+02  1.3539734101069038e+02  1.3823280269971775e+02  1.2969940084918287e+02  5.7614571367259039e+01  6.3298605712734961e+01  6.6154865814502614e+01  6.8984171496516609e+01  6.0470667050646817e+01  1.7301070725119467e+02  1.6452553847867395e+02  1.7055121848338359e+02  1.6698525575603639e+02  1.6096082115614058e+02  2.2949528392780670e+02  2.3252813629535547e+02  2.3442184069610508e+02  3.5779855527582771e+02  3.6065562999503265e+02  3.6255276975081728e+02  4.8876445535264651e+02  4.8517894748041527e+02  4.8381239936784851e+02  2.8794903317807922e+02  2.9141824885244341e+02  2.9284191927497704e+02  3.2345245970594374e+02  3.2622722269707668e+02  3.2800711446341609e+02  2.9665925963960245e+02  2.9804912732389732e+02  3.0121534487618936e+02  4.1702785028192631e+02  4.2623263402390012e+02  4.2006255742190706e+02  4.2319677955698080e+02  4.2936617660627815e+02  5.9322505101268530e+02  5.8696491834392873e+02  5.8389737710477186e+02  5.8070743491502355e+02  5.9015730134402804e+02  2.2250156283335286e+01  2.6769836399457304e+01  2.2406592329755628e+02  2.2568852269325433e+02  3.1700053987050995e+02  3.2226636866463650e+02  3.1868257348108102e+02  3.2393494555326959e+02  1.1987874117928136e+02  1.2510320697929772e+02  1.2154558731919484e+02  1.2675106654316414e+02  5.0387250441460418e+02  5.0917633718673375e+02  5.0556323026843597e+02  5.1084373520564151e+02  1.4524137729962030e+02  1.4000790049615395e+02  1.4356535181478313e+02  1.3835137374051882e+02  5.6475677402944427e+02  5.6305849957113514e+02  5.2958507183726874e+02  5.2428055340657647e+02  5.2788777290473217e+02  5.2260990618849246e+02  7.5972855466635210e+01  7.0751912211451128e+01  7.4299993253222269e+01  6.9099436502455376e+01  5.0671812589441153e+01  5.5883875335196343e+01  5.2334813062481132e+01  5.7527734590334838e+01  1.7993950950856510e+02  1.7826402670963472e+02  3.5197515131580332e+02  3.5360704413140206e+02  3.9926518407964141e+02  3.9559984450436872e+02  3.9394802503225634e+02  4.0093719770165831e+02  4.4694544404897312e+02  4.5056071203325871e+02  4.5228973006264573e+02  4.4520658992950979e+02  6.1106561984550831e+02  6.1476871999112541e+02  6.1642019220501152e+02  6.0938923735163121e