<?xml version="1.0"?>
<VTKFile type="UnstructuredGrid"  version="0.1"  >
<UnstructuredGrid>
<Piece  NumberOfPoints="2690" NumberOfCells="4864">
<Points>
<DataArray  type="Float64"  NumberOfComponents="3"  format="ascii">-5.064231177039465 22.01406229116151 0  -5.655977157056357 21.27669337758896 0  -5.062962501974083 21.51521328086837 0  -5.061467530030516 21.01413332426062 0  -5.657245233647001 21.77695096903043 0  -6.250261765660885 21.53757134696912 0  -9 21.99999999996945 0  -8.406253462808911 21.26543857684815 0  -9 21.49999999997139 0  -9 20.99999999997333 0  -8.406478595985707 21.76542219156994 0  -7.812745567842552 21.53080745362964 0  -9 32.9999999999446 0  -8.411181882839443 32.26539270577582 0  -9 32.49999999994358 0  -9 31.99999999994255 0  -8.411406818921998 32.76539701460699 0  -7.822600736507574 32.53076051269805 0  -5.096930143170366 33.01519979771208 0  -5.602332322266918 32.31139835197631 0  -5.095605744711538 32.51721951118409 0  -5.094016550991503 32.01470815008651 0  -5.603643956187889 32.81178805481109 0  -6.110359248934474 32.60619620935363 0  -5.160277598780306 54.01448754448106 0  -5.741039938478989 54.75131401039302 0  -5.739788599184426 54.25191938775362 0  -6.319112306297339 54.48722401747178 0  -5.16174410323015 54.51556259658101 0  -5.163046904578686 55.0146381876857 0  -9 54.99999999998974 0  -8.49126350093586 54.2985943933833 0  -9 54.49999999998872 0  -9 53.99999999998769 0  -8.491461703119596 54.79853388271055 0  -7.982766244146091 54.59708731870258 0  -9 39.99999999995897 0  -8.415002387390933 40.74034642124018 0  -8.414777389800893 40.24034959010157 0  -7.829769710630891 40.48065698527993 0  -9 40.49999999996 0  -9 40.99999999996102 0  -5.120846898276857 41.01344496542298 0  -5.67814143840756 40.28229326480187 0  -5.119533980945758 40.51562756509422 0  -5.118067616095859 40.01514020404979 0  -5.679411523736584 40.78206535627525 0  -6.238019912311408 40.54822529641228 0  -9 55.99999999999179 0  -8.44599297416246 56.74596163498715 0  -8.445797087937846 56.24592339901369 0  -7.891799251961689 56.49184610292035 0  -9 56.49999999999282 0  -9 56.99999999999384 0  -5.16632291132601 56.013834712114 0  -5.722364355687647 56.75721032370411 0  -5.721130356802591 56.25715119586827 0  -6.275706607460674 56.49872046630174 0  -5.167880518801487 56.51602832313174 0  -5.169179203443004 57.01468242002256 0  -7.487098222368472 43.00796360400471 0  -6.666341824560722 43.12061099099198 0  -7.256614475648246 43.34665215362011 0  -7.02624718350526 43.68535164394292 0  -6.896707271074335 42.78183523760074 0  -6.306114343409289 42.55571129775299 0  -6.650710967176948 49.01503874264156 0  -7.46777459262889 48.90154685862392 0  -6.880011988857621 48.67624418929272 0  -7.109445258946535 48.33740420748932 0  -7.238353029871539 49.24031166085877 0  -7.825780645297348 49.46569223991516 0  -6.645248821441259 46.01412450109703 0  -7.464214325873718 45.90095568704731 0  -6.875103344709428 45.67516427085518 0  -7.105082633793767 45.33627690416601 0  -7.234243298153493 46.23983237020708 0  -7.823034049709212 46.46548734114084 0  -6.574756892773999 7.014620162845363 0  -7.418244808025553 6.901347244408496 0  -6.811513920810108 6.675817744286817 0  -7.048396286760238 6.33701869008623 0  -7.181370804632209 7.240143963314382 0  -7.787782424315285 7.465657261378679 0  -7.47193057593468 30.00787372148493 0  -6.64293913639335 30.12041072383006 0  -7.239137542777812 30.34634621004171 0  -7.006464226208549 30.68476971853439 0  -6.875615265649038 29.78189121981133 0  -6.279092746027669 29.55598720329159 0  -6.569567595859365 4.013918591159992 0  -7.41512998079485 4.117252183315192 0  -6.807888547573053 4.350016733088242 0  -7.046104172693664 4.686069093499469 0  -7.176921449179265 3.781171511939329 0  -7.784449586907841 3.548515668651294 0  -6.580071841260429 10.01474531136944 0  -7.421955407187381 10.11780494802977 0  -6.817382821723754 10.35065917213543 0  -7.054583661739558 10.68657370292863 0  -7.1847449466633 9.781904910164632 0  -7.789625237371745 9.54904704388181 0  -6.585400877987563 13.01487625289553 0  -7.425178521329899 12.901553446213 0  -6.821109097224138 12.6760786684226 0  -7.056941862153747 12.33728568236158 0  -7.18934963408505 13.24036785128426 0  -7.793100934589932 13.46581802727938 0  -6.590760634450875 16.01510390079773 0  -7.428680704092406 15.9016203757267 0  -6.825942439773297 15.67632310154872 0  -7.061251921543209 15.33750557199003 0  -7.193381729470816 16.24038355186844 0  -7.79579495849115 16.46574832778984 0  -6.596251657648868 19.01352734444857 0  -7.432519992072362 19.11685276119981 0  -6.832022369229239 19.3491979493155 0  -7.067664720353557 19.68495401243126 0  -7.196866771052234 18.7810527697829 0  -7.797699235284639 18.5485391666911 0  -6.61074120301648 27.01302203420987 0  -7.441970716742901 27.11653645395704 0  -6.845074053618522 27.34897831692 0  -7.079291385125831 27.68495507564218 0  -7.207750269888571 26.78047940324791 0  -7.804961737904407 26.54805525421699 0  -8.279299826972863 19.09788609600074 0  -8.038550684138578 18.82319033727324 0  -8.398724662719323 18.27430897987342 0  -8.639498225398231 18.54900486400717 0  -9 17.99999999998495 0  -8.283646866412621 27.09772690600378 0  -8.044353774266098 26.82289286977748 0  -8.402359155666009 26.27401459574676 0  -8.64167578175609 26.54886078058192 0  -9 25.99999999995395 0  -8.277551326064236 15.91058019483397 0  -8.036622817872139 16.18817227425904 0  -8.398020046290593 16.73284235864562 0  -8.638924144635494 16.45526698335269 0  -9 16.99999999998883 0  -5.80317997180709 30.11110633283323 0  -6.041082925311658 29.83353036884263 0  -5.682250376335956 29.2883426402802 0  -5.444330666325991 29.56658167888347 0  -5.084866770987419 29.0140488857387 0  -8.275939358677196 12.91057423568512 0  -8.034470626926355 13.18819317958744 0  -8.396670256016524 13.73291515610886 0  -8.638115929294106 13.4552939464299 0  -9 13.99999999999401 0  -8.2744425745484 10.09833229404053 0  -8.032082377668084 9.823690242362918 0  -8.394692127636915 9.274521226430632 0  -8.637076565971363 9.549163352470947 0  -9 8.99999999999857 0  -8.271314879521078 4.098070638031973 0  -8.027926072954429 3.823304864088417 0  -8.392127839698004 3.274237431573117 0  -8.635529457124216 3.549006147643524 0  -9 2.999999999998668 0  -8.272753106009446 6.91047105737407 0  -8.030218485957496 7.188061369077285 0  -8.394010460716792 7.732832800474664 0  -8.636521485364311 7.455244104581219 0  -9 7.999999999999485 0  -8.293888337599871 45.9102906188242 0  -8.058411308399057 46.18787250880887 0  -8.411638724088149 46.73276946966124 0  -8.647091642865327 46.45518904233924 0  -9 46.99999999997333 0  -8.295526126058949 48.91053836947867 0  -8.060601774467967 49.18812332165808 0  -8.413015532495969 49.7328129975611 0  -8.647915016208321 49.4552486017427 0  -9 49.99999999997949 0  -5.834943396245627 43.11127872130049 0  -6.070474358618209 42.833490632824 0  -5.7152012239537 42.28787163730406 0  -5.479658687460709 42.56640084276925 0  -5.123724843344759 42.01347424502295 0  -5.783544692528388 23.93369190862709 0  -6.028542570689161 24.19990707229724 0  -5.673294060587397 24.7434023463206 0  -6.273433936094623 24.46616922796274 0  -5.428376073861677 24.47785367683913 0  -5.073245541423593 25.01396943730854 0  -8.301862738955984 52.08761394307671 0  -8.062487834470989 51.82131279451296 0  -8.41137623230221 51.27756492714364 0  -7.823010577813353 51.55505151881924 0  -8.650779854171066 51.54386524374698 0  -9 50.99999999998153 0  -5.818063702502036 38.1008565906413 0  -6.05922636334398 37.83150686087437 0  -5.704894464939229 37.2911541109539 0  -6.300493458780395 37.56220342568999 0  -5.463712498572001 37.56130604006478 0  -5.108703230762464 37.01284795157655 0  -5.810316018857297 34.93355674046997 0  -6.053289242168884 35.19967096099074 0  -5.70102427032622 35.74299001058056 0  -6.296156242662851 35.4658298984492 0  -5.458121642306156 35.47764255271507 0  -5.10599762803555 36.01332383237489 0  -7.925453554397224 50.50671144242525 0  -7.874209711246032 51.03089934040423 0  -8.462832995553159 50.75331856836159 0  -6.193912514517941 36.51388350602807 0  -6.247218677329898 37.03795615381202 0  -5.651369424530644 36.76585468179661 0  -6.245014749940908 35.98976402747655 0  -5.650087801538697 36.26569658713459 0  -6.032687083211158 25.27523041174273 0  -6.153030292290273 24.87072975256901 0  -5.553062316614825 25.14716918753786 0  -8.045850220211923 25.75086797591347 0  -7.925369816862576 26.14946112255006 0  -8.52297014503386 25.87543631871681 0  -6.99439324945114 34.38615862129272 0  -6.64512796447306 34.92607524819444 0  -6.896006979617935 35.24923992015577 0  -7.245290446945405 34.70944000059553 0  -7.496061695339632 35.03269631470103 0  -7.13335612405726 52.63432965462621 0  -7.478032567445675 52.09476609091225 0  -7.230516962603972 51.77181966323075 0  -6.885855501895979 52.31142664875735 0  -6.638225032284248 51.98856397103151 0  -7.000933814433626 38.63426512559708 0  -6.65086033034869 38.09831547222852 0  -6.900079047206525 37.77240081749184 0  -7.250137824309197 38.30847467099301 0  -7.499466834473677 37.98265360171266 0  -6.977569274384069 23.38623365721715 0  -6.625356951531783 23.92625140159868 0  -6.878329521858472 24.24947999591203 0  -7.230561697465275 23.70956096638018 0  -7.483429371337603 24.03284882160541 0  -7.898115740100075 17.50658991919338 0  -7.847885868652867 18.02758560952942 0  -8.449162544310388 17.75325670080162 0  -7.846974680835029 16.98617680994185 0  -8.448953337692451 17.25331616062854 0  -7.890755356017632 8.506741821077517 0  -7.840171366524899 9.027895777045702 0  -8.445478096004303 8.753372399213042 0  -7.933332407473234 2.42145465695091 0  -7.858850502608628 2.984967389376259 0  -8.46676094957108 2.71074705191217 0  -7.839288621159479 7.986203228743364 0  -8.445275608375635 8.253366170561623 0  -7.875637402336676 49.98621018517572 0  -8.462619759525227 50.25337773686416 0  -6.117871893753319 41.60673236806368 0  -6.212027572511905 42.08128325688789 0  -5.6208
[...]
<PointData  Scalars="f_29"> 
<DataArray  type="Float64"  Name="f_29"  format="ascii">3.8497036383003007e+02  3.7172745336445308e+02  3.7597003774050370e+02  3.6698561126433509e+02  3.8067394854175660e+02  3.7640771506849001e+02  3.8486029199787646e+02  3.7162000221754153e+02  3.7585817464080407e+02  3.6686868423986959e+02  3.8056764466585889e+02  3.7634333227780564e+02  5.8291189950206683e+02  5.6942595256190396e+02  5.7374099563102300e+02  5.6458522319519921e+02  5.7854049352179516e+02  5.7423582206524247e+02  5.8297859941456784e+02  5.7015042202168775e+02  5.7385221973048328e+02  5.6474979659094868e+02  5.7924591621971103e+02  5.7553047222463351e+02  9.7120844319648268e+02  9.8522646159126168e+02  9.7577330133547605e+02  9.8024823073116215e+02  9.8069937893618885e+02  9.9023229318991480e+02  9.9009120508500246e+02  9.7679664161014250e+02  9.8063190822010051e+02  9.7117206230976751e+02  9.8624277662387829e+02  9.8241432091478475e+02  7.1069087401170680e+02  7.2440376869162105e+02  7.1516740396703085e+02  7.1957625663318277e+02  7.1998541507315383e+02  7.2926890919969946e+02  7.2937390859559082e+02  7.1582366552216376e+02  7.2010492509029189e+02  7.1082295369918904e+02  7.2507039213618930e+02  7.2076846616732360e+02  1.0089299366422545e+03  1.0230754457880216e+03  1.0136020131116468e+03  1.0182245496148408e+03  1.0184177512415203e+03  1.0279565906449407e+03  1.0090406297277277e+03  1.0231586444569967e+03  1.0136901267146525e+03  1.0182783460302086e+03  1.0185195929517674e+03  1.0280611292163358e+03  7.6617334569851459e+02  7.6819195710735266e+02  7.7241135734132490e+02  7.7865508445493208e+02  7.6195925337743802e+02  7.5774637478123998e+02  8.7751934843285733e+02  8.7547197093337559e+02  8.7122118721272398e+02  8.6492681586173717e+02  8.8177460109158403e+02  8.8602517939869313e+02  8.2173084057607002e+02  8.1968972150987111e+02  8.1546944044030317e+02  8.0920895307551018e+02  8.2595640484723106e+02  8.3017939449908397e+02  1.2081420875455950e+02  1.1890017346024166e+02  1.1495099559161999e+02  1.0909030222846788e+02  1.2476794258799104e+02  1.2871754720325336e+02  5.2843977997404033e+02  5.3041735177664543e+02  5.3454903145036110e+02  5.4066505671273535e+02  5.2431639577840133e+02  5.2019367184610599e+02  6.8873145856285490e+01  7.0716313941345703e+01  7.4693015725139304e+01  8.0514626470951157e+01  6.4900823838843607e+01  6.0929481035410852e+01  1.7304502436644947e+02  1.7490417605883198e+02  1.7892722041276829e+02  1.8481048048592757e+02  1.6902565225611397e+02  1.6500984095556746e+02  2.2553693385789239e+02  2.2360202883295341e+02  2.1961191393844319e+02  2.1368938250806983e+02  2.2953077668932536e+02  2.3352139443068157e+02  2.7829905610284010e+02  2.7636022809318757e+02  2.7234190298187144e+02  2.6638845642353760e+02  2.8232167064549020e+02  2.8633952650137280e+02  3.3138492500697089e+02  3.3329011325704971e+02  3.3737497493577757e+02  3.4336975907342844e+02  3.2730815389031540e+02  3.2323007974874724e+02  4.7436930970337198e+02  4.7629805068645106e+02  4.8043420443022836e+02  4.8650238929146099e+02  4.7023994574468890e+02  4.6610760517810684e+02  3.3300817317809657e+02  3.2812061514501028e+02  3.1842609810639777e+02  3.2330041197571438e+02  3.1365211571136365e+02  4.7601607147215253e+02  4.7106207232453772e+02  4.6123336133391535e+02  4.6617448751278874e+02  4.5637916411602811e+02  2.7657400042966066e+02  2.8145557491768255e+02  2.9108189125164529e+02  2.8619407238315608e+02  2.9577707694719533e+02  5.3015982877024260e+02  5.2517940639733285e+02  5.1533997613311840e+02  5.2027919702225063e+02  5.1051367519185311e+02  2.2381008918503770e+02  2.2866452814083084e+02  2.3823245176892172e+02  2.3338272740378997e+02  2.4292220592044518e+02  1.7462198819784493e+02  1.6981711033866833e+02  1.6028173577671276e+02  1.6507408192052651e+02  1.5558497101059527e+02  7.0441171523696966e+01  6.5685706444593563e+01  5.6246442693994673e+01  6.0999982436846523e+01  5.1611114909869819e+01  1.1910443040240440e+02  1.2390993796842916e+02  1.3338101699566252e+02  1.2857029201242352e+02  1.3799772579057716e+02  8.1991557877634386e+02  8.2504619287141520e+02  8.3516479355050012e+02  8.3003848336660326e+02  8.4012862345614758e+02  8.7570115947431702e+02  8.8086194904386957e+02  8.9104219047363347e+02  8.8587516897769831e+02  8.9601316099719327e+02  7.6793279275442137e+02  7.6284218335076889e+02  7.5278881479464064e+02  7.5783750253392486e+02  7.4786703618692934e+02  4.1907242790995701e+02  4.2386749835958926e+02  4.3358379483042012e+02  4.2866121356200790e+02  4.2876132652277994e+02  4.3849144862008569e+02  9.3517215918832483e+02  9.3016133609117514e+02  9.2000917380165117e+02  9.2514885919316703e+02  9.2500619514086725e+02  9.1489909523780955e+02  6.7566607129210558e+02  6.7076897195138190e+02  6.6089894719164454e+02  6.6586880870814366e+02  6.6574790341641108e+02  6.5596787101045186e+02  6.1775831597555259e+02  6.2264709481190516e+02  6.3254476255253701e+02  6.2753504131257773e+02  6.2761945860733488e+02  6.3751916915530433e+02  9.0550323532021241e+02  9.1532780513058583e+02  9.1016917892134961e+02  6.4672009937492578e+02  6.5629515764386281e+02  6.5132027428617062e+02  6.3711835905830003e+02  6.4214715712763200e+02  4.4317257905143242e+02  4.3591197569998513e+02  4.4086488475749775e+02  4.5180845508562817e+02  4.5895855212015272e+02  4.5406971604577990e+02  6.0791636702152346e+02  6.1771850324237539e+02  6.2363367378629755e+02  6.1382363755562960e+02  6.1973296507810619e+02  9.4535444679423142e+02  9.3524459465845837e+02  9.2916342263759407e+02  9.3926606058128584e+02  9.3318154149385850e+02  6.8555568630542098e+02  6.7570058568037621e+02  6.6975191805590021e+02  6.7959829243827880e+02  6.7364295685031561e+02  4.0940369372010611e+02  4.1902475076065411e+02  4.2482595272889046e+02  4.1519766782552091e+02  4.2099267801529555e+02  3.0475856795039249e+02  3.1399570239297856e+02  3.0917265672090332e+02  2.9554099318409243e+02  3.0029638678811784e+02  1.4684000646894057e+02  1.5592701274907765e+02  1.5117926653028465e+02  4.1501234049996476e+01  5.1217761618654919e+01  4.6530030477545694e+01  1.3777111993601133e+02  1.4244689594688498e+02  8.9575607700659009e+02  9.0078610267447925e+02  7.4027793781524508e+02  7.4901083486480024e+02  7.4405314914262942e+02  4.3292640049619541e+02  4.3079597457868232e+02  4.2695627464116114e+02  9.1818721417117308e+02  9.2166756098354199e+02  9.2568299155540353e+02  6.5906876261059222e+02  6.6246958814822244e+02  6.6635224666455554e+02  6.3433471156115070e+02  6.3093718922002665e+02  6.2702998471785065e+02  5.0572523507865446e+02  5.1295825878704341e+02  5.0810175292941699e+02  7.7933414778402050e+02  7.6852658389455189e+02  7.7899695173260750e+02  8.6424003696100863e+02  8.7512610520431463e+02  8.6458398822420190e+02  8.0851729734170465e+02  8.1934357239539884e+02  8.0886376562847681e+02  1.0844154705591336e+02  1.1857366055763659e+02  1.0876738894084308e+02  8.1096678582232272e+01  7.1009233444523488e+01  8.0807527933360419e+01  5.4147152212615492e+02  5.3081740139455371e+02  5.4107186224943109e+02  1.8539511712199447e+02  1.7519877927939692e+02  1.8510462344189924e+02  2.1303315320993786e+02  2.2327220435602959e+02  2.1336264353621627e+02  2.6573618843999463e+02  2.7603172482562792e+02  2.6606292526667909e+02  3.4411526384417908e+02  3.3366599526706244e+02  3.4374665399294560e+02  4.8711615560265193e+02  4.7660623001239134e+02  4.8681137055971305e+02  4.6026850668867746e+02  4.6318753434686283e+02  4.6731781134564488e+02  3.1675121911023848e+02  3.1999044422667191e+02  3.2406637070044252e+02  2.9271573977248221e+02  2.8952906650262548e+02  2.8550539462905772e+02  5.1410634975694529e+02  5.1715167608537024e+02  5.2127030202602236e+02  2.3966848443377435e+02  2.3659570180100394e+02  2.3260062544763306e+02  1.5877085191608498e+02  1.6189030314937636e+02  1.6590575138387393e+02  5.7021496029353798e+01  5.8975781437038641e+01  6.2946277212596620e+01  1.3499592343423555e+02  1.3185812772337832e+02  1.2790245594182201e+02  7.5150279930856686e+02  7.5462534739789021e+02  7.5883643406369788e+02  8.9276486892609262e+02  8.8939650327202651e+02  8.8513991649816830e+02  8.3667371775758966e+02  8.3342723145771924e+02  8.2919974923772725e+02  7.3052381965347297e+02  7.3482379107769952e+02  9.9961017298559318e+02  9.8993180466413469e+02  9.9487914534601930e+02  9.9955008311511040e+02  9.9098143636917803e+02  9.9481561442927205e+02  1.0088865369423205e+03  1.0042382294988637e+03  1.0089448792817971e+03  1.0043228252418356e+03  2.4294568957827714e+01  3.5486982598345257e+01  2.6884588111237267e+01  2.9471257907095641e+01  3.2891745343287681e+01  1.0702663452720028e+03  1.0703229668637921e+03  1.0775826501824527e+03  1.0703766211479958e+03  1.0775301218102707e+03  1.0847975504297965e+03  1.0702700865698223e+03  1.0703270653554171e+03  1.0775853291738611e+03  1.0775327716538086e+03  1.0847975504297965e+03  1.0408502585568222e+03  1.0295340411444779e+03  1.0343855347942867e+03  1.0408876365362642e+03  1.0295855865124493e+03  1.0344541305939881e+03  1.3289193912743526e+01  1.3339163651940421e+01  6.6919677389547303e+00  1.3387164300365285e+01  6.6439332284595842e+00  0.0000000000000000e+00  3.9091318900578398e+02  3.8429749821826607e+02  3.9224977928037299e+02  3.8296216915901937e+02  3.8958577045515023e+02  5.8906867557909004e+02  5.8232785522759173e+02  5.9041837117320392e+02  5.8097901201219088e+02  5.8772712016055368e+02  7.0455496526005163e+02  7.1139623721136309e+02  7.0321930043018392e+02  7.1272765713196566e+02  7.0587979209726166e+02  9.6623615283224410e+02  9.7324561388942311e+02  9.7056691566950178e+02  9.6357337567868751e+02  9.6089707248755690e+02  1.3130148184725064e+01  1.3259568721395652e+01  6.6930401870654421e+00  6.5626296732026965e+00  0.0000000000000000e+00  3.6206388586976016e+02  3.6923842871219972e+02  3.6454788814356948e+02  5.5961858553451248e+02  5.6692672950452879e+02  5.6211621413293506e+02  7.3417473217447900e+02  7.2687415861657166e+02  7.3170788735131259e+02  9.8992028305018016e+02  9.9960567347239305e+02  9.9959201313748565e+02  1.0089057599596854e+03  9.9957475785652252e+02  1.0089320987485771e+03  9.9100065239539276e+02  7.2964344525615547e+02  7.3939641304161103e+02  7.3851714181568377e+02  3.7270820813539893e+02  3.7452432326941721e+02  3.8248123550401795e+02  3.7455655816905380e+02  3.8432745375237465e+02  5.6929469833222913e+02  5.7176364098634542e+02  5.7985712106026017e+02  5.7241260233645426e+02  5.8297126624188832e+02  9.7711686917229713e+02  9.7868554712803052e+02  9.6900449284259469e+02  7.2339834785822768e+02  7.2208401422819634e+02  7.3095887307733233e+02  7.1198587398561403e+02  7.1330448633958065e+02  7.2149014535081335e+02  1.0165645748096913e+03  1.0174231122968928e+03  1.0080768326166120e+03  1.0173963242004892e+03  1.0256676043203843e+03  1.0248348621736168e+03  1.0331040531968295e+03  9.7976628275524922e+02  9.8835188987547417e+02  1.0256922898962630e+03  3.9197343332721260e+02  3.8419508875662621e+02  3.9211018302430875e+02  5.9014356091096613e+02  5.8283894910235574e+02  5.9028039313290901e+02  7.0356336981704681e+02  7.1216447903302947e+02  7.0339952336220665e+02  3.1075703760041426e+02  2.9873294876090273e+02  1.5280743607335512e+02  4.9263127761163368e+01  1.4091397084265583e+02  8.9913003331716368e+02  9.7073363385283596e+02  9.6262820762172771e+02  9.6435029194311142e+02  9.7337878811463531e+02  3.0479141447188448e+02  2.9875192135956189e+02  3.0477678654323802e+02  3.1077039739558666e+02  1.4687747871972132e+02  1.4093518146736301e+02  1.4686043574178768e+02  4.2989870772667146e+01  5.0005812145466614e+01  4.2248211062541593e+01  1.5282333866938720e+02  9.0553298046133796e+02  8.9914705086721915e+02  9.0551988300933363e+02  3.5621014865134822e+02  3.6739217191991776e+02  3.6445798371419318e+02  3.5914182394155102e+02  5.5373521650795396e+02  5.6445929707871028e+02  5.6151368638080010e+02  5.5668029486490570e+02  7.2878199082695801e+02  7.3634299859761234e+02  7.4588660526210845e+02  7.4501067217844070e+02  1.0585230080867821e+03  1.0460798521221109e+03  1.0549178007318876e+03  1.0513138347772829e+03  1.0496863053500747e+03  1.0585227659199149e+03  1.0460922623879073e+03  1.0549192962994337e+03  1.0496996916308419e+03  1.0369924075744887e+03  1.0369721901526279e+03  2.4906308992300396e+02  2.4128786689911036e+02  2.4602110084803340e+02  8.4661233287661423e+02  8.3839115237769340e+02  8.4339842421354012e+02  9.1184713047259254e+02  6.4051925401840992e+02  6.5289244587102428e+02  9.1185928346989328e+02  6.4667756789974976e+02  6.4050595387104011e+02  6.4669655110295855e+02  6.5287344254814002e+02  4.4743446311499440e+02  4.5603876180709858e+02  4.5385165308913867e+02  4.4962067383776389e+02  5.2846914034406075e+02  5.1944975710694871e+02  5.2932322865759738e+02  2.7819375218613027e+02  2.7738535239411016e+02  2.8699386811677101e+02  3.3131353909454248e+02  3.2246991494197476e+02  3.3216232124222660e+02  4.7430062961672968e+02  4.6533122067774991e+02  4.7516005609533102e+02  6.8793223313578935e+01  6.0188970622165229e+01  6.9619029475765771e+01  1.2069645676553169e+02  1.1990124055894287e+02  1.2935661849971964e+02  1.7295270103378982e+02  1.6425629258051222e+02  1.7378892423643745e+02  2.2542146662024265e+02  2.2461707568081937e+02  2.3417642436185727e+02  8.2162400350701614e+02  8.2077125053231589e+02  8.3088040653855955e+02  8.7741618598704133e+02  8.7656027159971859e+02  8.8672282576029204e+02  7.6620486413493268e+02  7.5699191933416853e+02  7.6707792591474538e+02  3.6670273349403232e+02  3.5845668262950477e+02  3.6069337263484653e+02  5.6390975580124609e+02  5.5613090659668285e+02  5.5851990672636055e+02  4.9946988342097029e+02  4.9363891662970758e+02  5.0016573273161782e+02  4.9294362249226282e+02  4.9877506547584505e+02  7.9327543664710493e+02  7.8663548918914159e+02  7.9392826947427034e+02  7.8597459627355693e+02  7.9263275553645963e+02  7.9458420071990281e+02  8.0122094648110055e+02  8.0188009011518352e+02  7.9524241110831156e+02  5.0991291559758179e+02  5.0294243478394571e+02  5.0713581151999358e+02  3.6851703567770073e+02  5.6702472781553251e+02  3.6228585146752778e+01  3.8723035874883567e+02  5.8532732987471547e+02  9.6872146753219761e+02  7.0828018782427466e+02  3.6379341345989707e+02  5.6164598022045482e+02  4.3804495034545727e+02  4.4017943167769243e+02  4.4530368043352183e+02  6.0632477571084212e+02  6.1691627245101074e+02  6.0712159166321987e+02  9.4698402290697413e+02  9.3605981496175946e+02  9.4617361873372192e+02  6.8697365930321416e+02  6.7640789851748423e+02  6.8626825279760101e+02  4.0805595459555883e+02  4.1834570970727486e+02  4.0873089835579248e+02  1.9921204077276110e+02  2.0613356421512989e+02  1.9923691161609386e+02  2.0610891123174255e+02  1.9918680661236081e+02  1.9231438698383025e+02  1.9228895784169524e+02  9.4766001452321845e+01  1.0161419300177006e+02  9.4789261138037674e+01  1.0159073097488429e+02  9.4742543296132609e+01  8.7940883580035475e+01  8.7917715163965894e+01  1.0422091170174506e+03  4.2057603620784238e+02  4.1983397272783458e+02  4.2950195024854276e+02  9.3357211460457131e+02  9.2422307074313801e+02  9.3437179537196357e+02  6.7413895862223262e+02  6.6500367336891168e+02  6.7490810968792880e+02  6.1928490015070497e+02  6.1853018837784828e+02  6.2837560145068267e+02  5.1115308225295894e+02  5.0565802475524850e+02  5.0496327065029936e+02  8.0490557643823308e+02  7.9941644796733885e+02  7.9876533637911518e+02  7.8295913331368752e+02  7.8844291655252960e+02  7.8909879784506984e+02  2.5315732203222839e+02  2.4436425427326770e+02  2.4641136205181053e+02  2.5111284611375956e+02  8.5093619257744672e+02  8.4164147602191554e+02  8.4380318760684600e+02  8.4877677511437264e+02  0.0000000000000000e+00  0.0000000000000000e+00  6.6930825816536954e+00  1.0847975504297965e+03  1.0847975504297965e+03  1.0775855769392506e+03  1.0847975504297965e+03  0.0000000000000000e+00  3.8848346100686337e+02  5.8657609249158293e+02  9.6776515874423478e+02  7.0721608088758182e+02  1.0643923382403464e+03  1.0644468661974111e+03  1.0643960329650870e+03  1.0644488242766618e+03  5.2396217949442864e+01  4.4355760684129798e+01  5.2050495603243867e+01  5.1730694317884897e+01  4.4713648394443254e+01  3.7017599257441077e+01  4.0001280363768268e+02  4.0015285559844199e+02  5.9823330579531523e+02  5.9837133459079394e+02  6.9526755432832908e+02  6.9509507578165505e+02  9.5566228684098598e+02  9.5394030995048911e+02  3.5239935232306141e+02  3.5016127351670201e+02  5.4999177580156299e+02  5.4760583595753189e+02  3.4334847799289967e+01  3.5705424027428414e+01  4.3018375895638506e+01  1.8788636818309257e+01  1.8842479047109926e+01  2.5740023568107097e+02  2.5944313413879087e+02  8.5542644628603705e+02  8.5758446080796057e+02  2.3451139398240485e+01  1.8287749535148478e+01  1.8417973235363291e+01  2.5482461250709912e+02  2.6316728437669019e+02  2.6063253901243269e+02  8.5270558257087896e+02  8.6152564290174928e+02  8.5884407965319360e+02  4.0423988668894748e+02  3.9824261882797737e+02  3.9691146451328382e+02  6.0288051798826905e+02  5.9664733381916278e+02  5.9530202055711413e+02  6.9059176367448606e+02  6.9690366122245882e+02  6.9823538556689425e+02  9.5113377943935427e+02  9.5601566160026618e+02  9.5867731569273997e+02  3.5487077445819961e+02  3.4658537389903262e+02  3.4901729118999407e+02  5.5255034935169613e+02  5.4403045321896320e+02  5.4656380163449330e+02  3.3612787822735413e+01  2.5019557727840986e+01  2.5738053733459228e+01  8.5886722345527551e+02  8.4918347994589703e+02  8.4521764947525890e+02  8.3950463810266012e+02  8.5490233499042210e+02  1.4691141337926197e+02  1.5162716426778766e+02  1.5637683063035459e+02  1.4216387969647681e+02  1.3745347210088164e+02  3.1347149825678889e+02  3.0433570597284591e+02  2.9999763618721244e+02  2.9520931407668132e+02  3.0913177858751072e+02  1.9059277263411988e+02  1.9921792308318629e+02  2.0354275506162443e+02  2.0785350834422124e+02  1.9491459131576815e+02  8.6233303620474047e+01  9.4769716029026540e+01  9.9049572135592342e+01  1.0331543140099998e+02  9.0511101714250202e+01  2.6065972069915188e+02  2.4775109860330559e+02  2.5690942051097755e+02  2.5150239454724445e+02  2.4234957424442300e+02  3.4693000058386764e+02  3.5157313175282314e+02  3.5449245283201634e+02  5.4483150287284252e+02  5.4928505330349083e+02  5.5222171261232802e+02  7.4977914585970643e+02  7.4414553802109265e+02  7.4197878886928777e+02  4.3671343130928284e+02  4.4207503207916562e+02  4.4425641988238010e+02  4.9160359546331978e+02  4.9588709988938848e+02  4.9866291049159474e+02  4.5020209556216412e+02  4.5232843595903671e+02  4.5722388011030949e+02  6.3715239298656945e+02  6.5156843667276439e+02  6.4191373263764035e+02  6.4680459741407242e+02  6.5646183117983742e+02  9.1533787268028914e+02  9.0536192521733926e+02  9.0046219590093403e+02  8.9539700125255763e+02  9.1043629590385603e+02  3.3242374181329403e+01  4.0007671301537371e+01  3.3855958805540405e+02  3.4102806212901515e+02  4.8156541595254794e+02  4.8970273498021334e+02  4.8415066378395153e+02  4.9227039579636340e+02  1.8000769948727037e+02  1.8789798184985398e+02  1.8250796977364627e+02  1.9037252588479126e+02  7.7363399927030275e+02  7.8202488476937253e+02  7.7629560123730937e+02  7.8466389869904719e+02  2.1842136830334283e+02  2.1047197156476366e+02  2.1585824429024171e+02  2.0793999373509303e+02  8.6997132421349829e+02  8.6725313206285546e+02  8.1421635578130474e+02  8.0581409470505912e+02  8.1151145933994314e+02  8.0314974765016007e+02  1.1377311639057490e+02  1.0590782233346896e+02  1.1123673655965008e+02  1.0340396608061474e+02  7.5767956056698637e+01  8.3574906034963973e+01  7.8243667597942107e+01  8.6023779554383665e+01  2.7115573740580902e+02  2.6858374979067872e+02  5.3581561511032635e+02  5.3834451583424550e+02  6.0942318279714482e+02  6.0373092265924083e+02  6.0116744583440300e+02  6.1203966062604104e+02  6.8404165758410602e+02  6.8973980907854582e+02  6.9247159697332222e+02  6.8131687751244556e+02  9.4373834367829681e+02  9.4966169852451299e+02  9.5228998863474737e+02  9.4107556657820078e