<?xml version="1.0"?>
<VTKFile type="UnstructuredGrid"  version="0.1"  >
<UnstructuredGrid>
<Piece  NumberOfPoints="2690" NumberOfCells="4864">
<Points>
<DataArray  type="Float64"  NumberOfComponents="3"  format="ascii">-5.018251675824419 22.00399284346927 0  -5.618136000516381 21.26653533509996 0  -5.017884066598181 21.50432167969088 0  -5.017469778546972 21.00402249561559 0  -5.618489366181262 21.76660601507851 0  -6.218747290799363 21.52857263346535 0  -9 21.99999999996945 0  -8.399539406622441 21.26333481946156 0  -9 21.49999999997139 0  -9 20.99999999997333 0  -8.399602305750344 21.76333010651168 0  -7.79914505863001 21.52664989957282 0  -9 32.9999999999446 0  -8.400923739766352 32.26332181127547 0  -9 32.49999999994358 0  -9 31.99999999994255 0  -8.400986701284989 32.76332292539574 0  -7.801913652848715 32.52663656989947 0  -5.027443173912115 33.0043200625868 0  -5.543087338220556 32.30063316516465 0  -5.027056666817253 32.50489222178964 0  -5.026628284082571 32.00418441376983 0  -5.543450524960913 32.80074284163415 0  -6.05947837677479 32.59654687426735 0  -5.045087160858196 54.00413380194286 0  -5.641900250990822 54.74143771339866 0  -5.64155321592019 54.24160883519769 0  -6.237985088336098 54.47848264361353 0  -5.045479561325812 54.50442580052887 0  -5.045856276458961 55.00417236058495 0  -9 54.99999999998974 0  -8.47593322178925 54.29681983764839 0  -9 54.49999999998872 0  -9 53.99999999998769 0  -8.475987407301659 54.79680318196547 0  -7.951931530097895 54.59361162048 0  -9 39.99999999995897 0  -8.401992426368508 40.73830935925736 0  -8.401929481706386 40.23831012833141 0  -7.803918895311904 40.4766086192066 0  -9 40.49999999996 0  -9 40.99999999996102 0  -5.034136578928297 41.00383221133583 0  -5.605152619415783 40.27193985764627 0  -5.03375453470753 40.50444747021589 0  -5.033355000355901 40.00431671526488 0  -5.605507126657841 40.77187456214438 0  -6.176908778789842 40.53921948424784 0  -9 55.99999999999179 0  -8.428530573228032 56.7440759979334 0  -8.428476847984527 56.24406558114452 0  -7.857010014895569 56.48813067132671 0  -9 56.49999999999282 0  -9 56.99999999999384 0  -5.046753792001732 56.00395372597785 0  -5.618773787022908 56.74728371937181 0  -5.618427906326832 56.24726739316385 0  -6.190056488927923 56.49009098731884 0  -5.04717076332455 56.5045579752011 0  -5.047545821639988 57.00418397778265 0  -7.451495877514926 43.00225987544781 0  -6.611266609628151 43.11169939520357 0  -7.215254210546594 43.33998003168808 0  -6.979046003725632 43.67770366506491 0  -6.847475903600015 42.77395482799086 0  -6.243396921899056 42.5456498456354 0  -6.587387313373361 49.00425784611677 0  -7.426573667133298 48.89458024963372 0  -6.823300139826705 48.6665074022949 0  -7.059247689636304 48.32874466775269 0  -7.190628352501871 49.23232193529238 0  -7.793810726318487 49.46041663835418 0  -6.585854193547044 46.00400105853497 0  -7.425574824704469 45.8944154239637 0  -6.821919043487799 45.66620534522086 0  -7.058018129613965 45.32843020067717 0  -7.18947829856684 46.23218795816113 0  -7.793043873270781 46.46035965528662 0  -6.566027990189393 7.004150417720623 0  -7.412645692740958 6.894531805738202 0  -6.804034060853409 6.666397480394851 0  -7.042074327151144 6.328645618696468 0  -7.174608020865787 7.232283283355615 0  -7.783129859763585 7.460412786119249 0  -7.447250245438352 30.00223446339206 0  -6.604716357938087 30.1116435200181 0  -7.210360959796221 30.33989411233892 0  -6.973505449022079 30.6775403005745 0  -6.841573626637234 29.77397072980577 0  -6.23583762302425 29.5457283838243 0  -6.564539044380981 4.003953171117574 0  -7.411751977653624 4.110749603428062 0  -6.8029940282816 4.340938474199188 0  -7.04141681148894 4.677910513461914 0  -7.173331285638152 3.773769176227354 0  -7.78217367569915 3.543611562760018 0  -6.567542363792521 10.00418770505944 0  -7.413703421944009 10.11090632459555 0  -6.805706750770124 10.34112049040102 0  -7.043838293401101 10.67805329629353 0  -7.175569638304648 9.77397730470611 0  -7.783655135249827 9.543762369132599 0  -6.569060031476448 13.0042224778419 0  -7.414621707607477 12.89458990761429 0  -6.806767980110967 12.66647090769128 0  -7.044509927423953 12.32872078729368 0  -7.176881652062618 13.23234638120748 0  -7.784645636096359 13.46045808507038 0  -6.57058267628722 16.00428715659744 0  -7.415614878571955 15.89460848733041 0  -6.808141073085381 15.66654023012151 0  -7.04573384174638 15.32878302561107 0  -7.178024338426114 16.23235033764834 0  -7.785407791072199 16.46043774954025 0  -6.572113261506832 19.00383831400174 0  -7.416685463407675 19.11063444543873 0  -6.809834186539415 19.34070340437071 0  -7.047520582137843 19.67759257664132 0  -7.178996718080849 18.77373318786052 0  -7.785939191717957 18.54361679150904 0  -6.576181380750344 27.00369419173035 0  -7.419338317152791 27.11054393732812 0  -6.813502502669702 27.34063990991598 0  -7.050790062590831 27.6775913205954 0  -7.182048748187486 26.77356997700398 0  -7.787974358501092 26.5434792947326 0  -8.272026352287348 19.09503181444554 0  -8.028996926014369 18.81931798405097 0  -8.392934968327813 18.27181953456089 0  -8.635971196560126 18.54753334846303 0  -9 17.99999999998495 0  -8.273246187233323 27.09498631873567 0  -8.030624301420431 26.8192332911456 0  -8.393952799324317 26.27173601010257 0  -8.636581423999308 26.54749243256593 0  -9 25.99999999995395 0  -8.27153854183771 15.90737097484345 0  -8.02845907536928 16.18390663509911 0  -8.392738337841019 16.73020976184588 0  -8.635811016443082 16.45367887172971 0  -9 16.99999999998883 0  -5.751337286025108 30.09878168277814 0  -5.993572328207452 29.8222496266097 0  -5.630010092633832 29.27579373527095 0  -5.387763944592579 29.55251296459837 0  -5.024074152415401 29.00398563373263 0  -8.271081822849244 12.90736959488901 0  -8.027849704283351 13.18391299682787 0  -8.392357076603584 13.73023077976632 0  -8.635582474308164 13.45368673219881 0  -9 13.99999999999401 0  -8.270655315343896 10.0951591432557 0  -8.027169146366109 9.819460929184915 0  -8.391793355131625 9.271880512175665 0  -8.635286284666263 9.547578770388059 0  -9 8.99999999999857 0  -8.269760968074792 4.095084983592583 0  -8.025980085012517 3.819351627895927 0  -8.391058998849102 3.271799967899574 0  -8.634843444191526 3.547534178504189 0  -9 2.999999999998668 0  -8.270173613755778 6.907340515330394 0  -8.026637789246628 7.1838758535271 0  -8.391599038748394 7.730207600212704 0  -8.635128040299112 7.453672696161448 0  -9 7.999999999999485 0  -8.276117981909543 45.90728690527919 0  -8.034566856300447 46.18381868274842 0  -8.396556402187915 46.73018698875118 0  -8.638100685767428 46.45365561625442 0  -9 46.99999999997333 0  -8.276577115875783 48.9073557006425 0  -8.035179733286178 49.18388837230098 0  -8.396939943669233 49.73019894841671 0  -8.638330552269055 49.45367208066738 0  -9 49.99999999997949 0  -5.760224376996132 43.09882914665928 0  -6.001795284917143 42.8222371130361 0  -5.639225956369643 42.27565906305653 0  -5.39764471271803 42.55245967400936 0  -5.034943912229037 42.00382591320982 0  -5.742405661229395 23.92125094133109 0  -5.990101789540587 24.18855659003204 0  -5.629251089840459 24.73087142240765 0  -6.237768263352406 24.45587502814219 0  -5.381571361229498 24.46375525630345 0  -5.020808073268083 25.00397573159993 0  -8.281756332762519 52.08479262659235 0  -8.03563911832093 51.81746323688615 0  -8.394711774508407 51.27508340577901 0  -7.789493985064781 51.55014505732067 0  -8.640836905155709 51.5424125452362 0  -9 50.99999999998153 0  -5.752089319031732 38.08854811141831 0  -5.998708987829797 37.82035361380009 0  -5.638115232088382 37.27893114867583 0  -6.245358255636241 37.55217454543502 0  -5.39148337481805 37.54735059922555 0  -5.030752489213697 37.00364793016553 0  -5.749923878796571 34.92121144876061 0  -5.997049964899577 35.18848875779739 0  -5.637035541719311 35.73075449759857 0  -6.24414643264883 35.45577855891359 0  -5.389923348904436 35.46369422433672 0  -5.030002638798722 36.00380191657783 0  -7.895530456551914 50.50202644960093 0  -7.842506332051201 51.02609074373854 0  -8.447794407926247 50.75100273738818 0  -6.138278497553005 36.50394436240997 0  -6.191822948230716 37.02803441494116 0  -5.584515675795624 36.75450477008467 0  -6.191207695482422 35.9798367889093 0  -5.584161722378707 36.25446485354708 0  -5.992574054174941 25.26429701356074 0  -6.115162007756346 24.86009521274318 0  -5.50669748481068 25.13486508356321 0  -8.03270309846401 25.74724908720671 0  -7.910328500528158 26.14536407090363 0  -8.516364386368641 25.8736251771172 0  -6.957050550198701 34.37881263793533 0  -6.600557305162935 34.91731738519742 0  -6.85579748713476 35.24147409027886 0  -7.212295414947229 34.70300172899238 0  -7.467505121290301 35.02718381621236 0  -7.078979851581464 52.62699924739334 0  -7.434196199558123 52.08859313494531 0  -7.17990023284197 51.76449810634612 0  -6.824688197122505 52.30291599731969 0  -6.570361350372134 51.97884440709544 0  -6.958879577294613 38.62698262531675 0  -6.602159894818716 38.08960139885064 0  -6.856935815394908 37.76466575671116 0  -7.213650849966324 38.3020812356358 0  -7.468457221371199 37.97717165303639 0  -6.952325556582639 23.37883444582833 0  -6.595006031533338 23.9173679852198 0  -6.85083549579227 24.24154248017188 0  -7.208159849651516 23.70303649495828 0  -7.463959142854554 24.02722735656638 0  -7.887979063128689 17.50186998828013 0  -7.836953396463826 18.02274930212633 0  -8.444018730713655 17.75092407784011 0  -7.836698986528136 16.98115605198143 0  -8.443960340404915 17.25094099885704 0  -7.88589049501426 8.501914262168897 0  -7.834767282123551 9.022838686374978 0  -8.442974069595545 8.750957569946138 0  -7.931845100996108 2.417259170440957 0  -7.856997492061231 2.9804302793424 0  -8.465949986174129 2.708635249403357 0  -7.83451568386764 7.981164572998266 0  -8.442916350814468 8.25095578095352 0  -7.844676282906589 49.98122390615723 0  -8.447735866046726 50.25101929693425 0  -6.052353634195658 41.59697336847411 0  -6.147883983263299 42.07132809895164 0  -5.5
[...]
<PointData  Scalars="f_29"> 
<DataArray  type="Float64"  Name="f_29"  format="ascii">2.5803428308759737e+02  2.4926364924817989e+02  2.5207700317385604e+02  2.4612723623402084e+02  2.5518427548402769e+02  2.5237094962968138e+02  2.5802332364943686e+02  2.4924930303692724e+02  2.5206495333567455e+02  2.4611476968011371e+02  2.5516944167302125e+02  2.5236237678738101e+02  3.8814093708920569e+02  3.7931957107040802e+02  3.8214859061047605e+02  3.7616561046850211e+02  3.8527222559301805e+02  3.8245040897797293e+02  3.8812810398056729e+02  3.7974635779403576e+02  3.8216799498959534e+02  3.7621673065930247e+02  3.8568519238590790e+02  3.8326546715849719e+02  6.3841591450995770e+02  6.4734426023882179e+02  6.4132405887879031e+02  6.4418147541317182e+02  6.4446194624518557e+02  6.5053165204329150e+02  6.5049162846499178e+02  6.4202325386360894e+02  6.4447217784897828e+02  6.3845085132042016e+02  6.4803324395187633e+02  6.4558873651290924e+02  4.7118645695143289e+02  4.8005267614592219e+02  4.7407562764483851e+02  4.7691774131147309e+02  4.7720360444915275e+02  4.8321205885467981e+02  4.8321946799910336e+02  4.7445409413205459e+02  4.7722548822047065e+02  4.7122053986024724e+02  4.8043280409463409e+02  4.7765893912572380e+02  6.6246606039093058e+02  6.7144770365669399e+02  6.6542795218640913e+02  6.6835553431651249e+02  6.6849520673469613e+02  6.7455887902667234e+02  6.6249078299732855e+02  6.7146432835404732e+02  6.6544606854235269e+02  6.6836663918735087e+02  6.6851622786638916e+02  6.7457974308779853e+02  5.0702633975021820e+02  5.0832000810094371e+02  5.1104728235062419e+02  5.1506973068451555e+02  5.0429945392498780e+02  5.0157463968927988e+02  5.7861482596651308e+02  5.7731681286307082e+02  5.7458319689733491e+02  5.7055234713965876e+02  5.8134929728271186e+02  5.8408121676677229e+02  5.4280471014335808e+02  5.4150414825961434e+02  5.3877891352910046e+02  5.3475292245804269e+02  5.4553055855446735e+02  5.4825573351613400e+02  8.1755286659081719e+01  8.0480227807253925e+01  7.7807487357169720e+01  7.3860231873393715e+01  8.4429035943274101e+01  8.7100746938177437e+01  3.5249927491214316e+02  3.5378586494458420e+02  3.5649601788955340e+02  3.6049503333006419e+02  3.4979135723148931e+02  3.4708345423397873e+02  4.6689970243695967e+01  4.7948325758915644e+01  5.0628617882160391e+01  5.4567690022744614e+01  4.4009971534471639e+01  4.1331506378595272e+01  1.1687786256083331e+02  1.1814213395525864e+02  1.2082922939307471e+02  1.2478065549803553e+02  1.1419134886900817e+02  1.1150722439115694e+02  1.5204881611368793e+02  1.5077093226800906e+02  1.4808959359844170e+02  1.4413092017191948e+02  1.5473081002711797e+02  1.5741121974031910e+02  1.8727242049159267e+02  1.8599536817582847e+02  1.8330686070674415e+02  1.7934209133502239e+02  1.8996170372355863e+02  1.9264834707434505e+02  2.2256677503635015e+02  2.2384141401189189e+02  2.2654120392270283e+02  2.3051735847106039e+02  2.1986916700323872e+02  2.1717237404962992e+02  3.1701386093748545e+02  3.1829102074263750e+02  3.2100097138049750e+02  3.2498930779691545e+02  3.1430486113393323e+02  3.1159550396319730e+02  2.2366928588964475e+02  2.2042200078531866e+02  2.1399499675224467e+02  2.1723550703449314e+02  2.1083834978536760e+02  3.1811937917175777e+02  3.1485773437207155e+02  3.0839949586239715e+02  3.1165450116300667e+02  3.0521726509835099e+02  1.8615477213171548e+02  1.8940086978685727e+02  1.9581739715831699e+02  1.9256898136666922e+02  1.9895229910353578e+02  3.5361617879061521e+02  3.5035087709883550e+02  3.4389176854270357e+02  3.4714496283260542e+02  3.4071619808176274e+02  1.5092879587202432e+02  1.5416932796004645e+02  1.6057326177648434e+02  1.5733776749622669e+02  1.6371998584452353e+02  1.1797152470726462e+02  1.1474026868004269e+02  1.0834490694470939e+02  1.1156943517619804e+02  1.0520336257882542e+02  4.7777685575366071e+01  4.4554907562598871e+01  3.8172199219571958e+01  4.1395586721088677e+01  3.5044476642788851e+01  8.0635195145499097e+01  8.3867426446584687e+01  9.0253712010712789e+01  8.7019733700416893e+01  9.3373189138011469e+01  5.4166541823810132e+02  5.4495980714493351e+02  5.5147113062474807e+02  5.4818178997028463e+02  5.5467121346132876e+02  5.7747927705596214e+02  5.8077955034337754e+02  5.8730372566176311e+02  5.8400111221952272e+02  5.9049228095196054e+02  5.0815192796321247e+02  5.0486454894703348e+02  4.9836587104395687e+02  5.0164050564011535e+02  4.9517767692454413e+02  2.8058879758546857e+02  2.8374959135372990e+02  2.9014287736373819e+02  2.8691045230795987e+02  2.8698087100612713e+02  2.9336241415974467e+02  6.1549942575868909e+02  6.1229712502700761e+02  6.0582393143104366e+02  6.0909328935601491e+02  6.0901894839291162e+02  6.0257541767657563e+02  4.4846347426268505e+02  4.4528305116235850e+02  4.3886409434131735e+02  4.4210106664496664e+02  4.4203028630846740e+02  4.3565018929676432e+02  4.1082348446389375e+02  4.1400365636654942e+02  4.2043142786890610e+02  4.1718393894420007e+02  4.1724338616333893e+02  4.2364823097569723e+02  5.9654437275453301e+02  6.0282134031973851e+02  5.9953630313473752e+02  4.2964571910483278e+02  4.3587590557701105e+02  4.3262548535309293e+02  4.2341051286846522e+02  4.2666613805593653e+02  2.9646106345849546e+02  2.9168368821557175e+02  2.9493078068686549e+02  3.0218836248907701e+02  3.0689308405948589e+02  3.0368559675142200e+02  4.0441755222316658e+02  4.1080028871760931e+02  4.1465285584060786e+02  4.0826875051893956e+02  4.1212030380793175e+02  6.2197479152966844e+02  6.1553095159029237e+02  6.1164614805510178e+02  6.1808782738277182e+02  6.1420166157592644e+02  4.5488106408893412e+02  4.4848754404431702e+02  4.4462886056616725e+02  4.5102043046380072e+02  4.4716017606148051e+02  2.7421144580878496e+02  2.8056015499858518e+02  2.8438939337237321e+02  2.7803975453962977e+02  2.8186765861490630e+02  2.0490431966817565e+02  2.1104071088855275e+02  2.0784769024374665e+02  1.9877224687426582e+02  2.0194773004441319e+02  9.9298908941976904e+01  1.0540572558919283e+02  1.0222721361940272e+02  2.8172868481890184e+01  3.4755424144753732e+01  3.1590599853807490e+01  9.3195915917405202e+01  9.6355273358452706e+01  5.9030866715113871e+02  5.9353769929426812e+02  4.9027665462279276e+02  4.9592697862280994e+02  4.9270997968357096e+02  2.8973103651695664e+02  2.8832147007761478e+02  2.8579833759221123e+02  6.0463460870546339e+02  6.0686356399214765e+02  6.0941778344232000e+02  4.3769089599773611e+02  4.3989571000705087e+02  4.4242488080027363e+02  4.2161404049458730e+02  4.1939979871752399e+02  4.1686635051892591e+02  3.3758385193664981e+02  3.4233451313880806e+02  3.3913371034894163e+02  5.1549674944782123e+02  5.0853323892572695e+02  5.1528401376705790e+02  5.7012590426957217e+02  5.7710204661779539e+02  5.7033868154171171e+02  5.3432268178748109e+02  5.4128847815407062e+02  5.3453744442629761e+02  7.3437993189503089e+01  8.0267834524875752e+01  7.3649241470377788e+01  5.4975078138618805e+01  4.8153171804236422e+01  5.4771796022469630e+01  3.6101352739238030e+02  3.5404513890909976e+02  3.6075598730070357e+02  1.2519012883696860e+02  1.1834831625089593e+02  1.2498589775192369e+02  1.4370856225612124e+02  1.5055869111182426e+02  1.4391982399220231e+02  1.7892242532977116e+02  1.8578394663396230e+02  1.7913183618058179e+02  2.3102494336573670e+02  2.2409706247244230e+02  2.3077306161612046e+02  3.2540497104351351e+02  3.1849939365256137e+02  3.2519773466388602e+02  3.0774229680448855e+02  3.0966848025226062e+02  3.1237850836268512e+02  2.1285856648830864e+02  2.1501514860797900e+02  2.1771250999030076e+02  1.9687832951938759e+02  1.9476395620125197e+02  1.9207483799115150e+02  3.4310023031224648e+02  3.4509195655099501e+02  3.4779940778210516e+02  1.6150445695178567e+02  1.5945817787447794e+02  1.5677613166564785e+02  1.0730171964909940e+02  1.0940399174802391e+02  1.1208961593248672e+02  3.8673563995433966e+01  4.0002151550603429e+01  4.2681956617991375e+01  9.1313468676153065e+01  8.9207740704497255e+01  8.6533620541923938e+01  4.9754690445195735e+02  4.9956053284889049e+02  5.0228710589820122e+02  5.8838174822983399e+02  5.8623212717288504e+02  5.8349766814259056e+02  5.5241726828274284e+02  5.5033678738665617e+02  5.4761041153005203e+02  4.8396744248094114e+02  4.8674670027339329e+02  6.5650348639718459e+02  6.5034375230071817e+02  6.5349442741617827e+02  6.5649004187262949e+02  6.5103929128394998e+02  6.5348750638814022e+02  6.6242284796906824e+02  6.5947608639145642e+02  6.6243524041789829e+02  6.5949314602817526e+02  1.6499722248023716e+01  2.4088930682364794e+01  1.8253264537514820e+01  2.0005596064946314e+01  2.2333092520117741e+01  7.0137239378915751e+02  7.0140581281515495e+02  7.0600056418259999e+02  7.0143801665104922e+02  7.0596872013726841e+02  7.1056579877978163e+02  7.0137363678778900e+02  7.0140700299203388e+02  7.0600151848380744e+02  7.0596965409744519e+02  7.1056579877978163e+02  6.8272650211377777e+02  6.7554065002271079e+02  6.7863030276894540e+02  6.8273336751261218e+02  6.7555101441950183e+02  6.7864356016933266e+02  9.0315274946354354e+00  9.0613165669984177e+00  4.5461074849794825e+00  9.0920618705206238e+00  4.5157002937461659e+00  0.0000000000000000e+00  2.6199768000885075e+02  2.5761725321008976e+02  2.6287099549107461e+02  2.5674576042431528e+02  2.6113114106502320e+02  3.9213187657200501e+02  3.8772765001372818e+02  3.9300311153299117e+02  3.8685745364326385e+02  3.9126660595852036e+02  4.6719410267790039e+02  4.7161826095004983e+02  4.6632055890549657e+02  4.7248972041836555e+02  4.6806081305536634e+02  6.3526198291621847e+02  6.3972259251648438e+02  6.3802760276192657e+02  6.3357408812962092e+02  6.3187740784315395e+02  8.9212725836767994e+00  9.0062027294353655e+00  4.5466560584370823e+00  4.4601455002288581e+00  0.0000000000000000e+00  2.4287551896606709e+02  2.4762406633323897e+02  2.4451283846241486e+02  3.7290384147889660e+02  3.7767736229208202e+02  3.7454452123115681e+02  4.8636472420045476e+02  4.8164076095933819e+02  4.8477852697092328e+02  6.5034292525736464e+02  6.5650270834678633e+02  6.5650024818603549e+02  6.6242730722428746e+02  6.5649654808726780e+02  6.6243282443317264e+02  6.5104318562298124e+02  4.8340682314593050e+02  4.8971355260767052e+02  4.8915341444069350e+02  2.4993937187691719e+02  2.5114957703259503e+02  2.5640705275224343e+02  2.5115391813397460e+02  2.5762155081242747e+02  3.7920773519159121e+02  3.8082752958837239e+02  3.8610673803748500e+02  3.8123583622432665e+02  3.8813338002613875e+02  6.4220453359123167e+02  6.4319461704588196e+02  6.3703973619444287e+02  4.7937547968064342e+02  4.7851714405989520e+02  4.8426513661527201e+02  4.7198623840435289e+02  4.7284579045019791e+02  4.7814825468386732e+02  6.6728863258439048e+02  6.6782832592916589e+02  6.6189408316283652e+02  6.6782274933625320e+02  6.7307813413777274e+02  6.7254313843013165e+02  6.7779624264830238e+02  6.4389667151449362e+02  6.4935159510838241e+02  6.7308317634971797e+02  2.6267406007268340e+02  2.5752379070500331e+02  2.6276992238174148e+02  3.9281006460732567e+02  3.8803838768633909e+02  3.9290491167781880e+02  4.6653079509063775e+02  4.7209296141277844e+02  4.6642957394714017e+02  2.0888327604446826e+02  2.0088923735701792e+02  1.0330223678896061e+02  3.3425499818020981e+01  9.5303993668987445e+01  5.9246097439142159e+02  6.3814882546261606e+02  6.3298649810187078e+02  6.3409168693264394e+02  6.3983870177871745e+02  2.0490952765936697e+02  2.0089335326768932e+02  2.0490747745582459e+02  2.0888396703965486e+02  9.9306414339114198e+01  9.5309442267275486e+01  9.9303069635108940e+01  2.9168329491564862e+01  3.3921292099555764e+01  2.8671694087282823e+01  1.0330409848601734e+02  5.9654713073237463e+02  5.9246380982599430e+02  5.9654629602867112e+02  2.3901965035040604e+02  2.4641023269385411e+02  2.4447848552196820e+02  2.4095010493998754e+02  3.6904115808422534e+02  3.7605801511129437e+02  3.7412371033158911e+02  3.7097452263610586e+02  4.8286743093840096e+02  4.8775679538401943e+02  4.9391077481998622e+02  4.9335094774576487e+02  6.9393074615525745e+02  6.8603931593702009e+02  6.9164320103232524e+02  6.8935630601295895e+02  6.8832963236571788e+02  6.9393026235549496e+02  6.8604147003804940e+02  6.9164327881263421e+02  6.8833158348878476e+02  6.8026182610493595e+02  6.8025790167121556e+02  1.6779923617367251e+02  1.6260326295650682e+02  1.6577838470018230e+02  5.5881723314937017e+02  5.5353450580333686e+02  5.5676287842338070e+02  6.0059128267967003e+02  4.2562676309063079e+02  4.3366949963064241e+02  6.0059079092621334e+02  4.2963796640276217e+02  4.2562580661183313e+02  4.2964144262241632e+02  4.3366462298203743e+02  2.9928957467785864e+02  3.0496549640605377e+02  3.0351621888117279e+02  3.0073849963417939e+02  3.5250532401264621e+02  3.4659962277961716e+02  3.5306215305995693e+02  1.8724943146946629e+02  1.8670230813988545e+02  1.9310834325304890e+02  2.2255931139471761e+02  2.1669149057733313e+02  2.2311451014319664e+02  3.1700485321382985e+02  3.1110654290592066e+02  3.1756249115855951e+02  4.6677481220003799e+01  4.0853435424092133e+01  4.7228089657285153e+01  8.1723663511517842e+01  8.1179253619361546e+01  8.7556421269694781e+01  1.1686740241412538e+02  1.1102792586524856e+02  1.1741992452567398e+02  1.5202294442176222e+02  1.5147612380914580e+02  1.5787565352278418e+02  5.4277891848295633e+02  5.4222246612170329e+02  5.4872910962289279e+02  5.7859253632213006e+02  5.7803613161503984e+02  5.8454981130413728e+02  5.0703496749123383e+02  5.0109285129395454e+02  5.0759521164875468e+02  2.4597541220226387e+02  2.4051623848076557e+02  2.4200787435272352e+02  3.7568077301718807e+02  3.7059782823199907e+02  3.7215144111683685e+02  3.3351171165810729e+02  3.2968097181452470e+02  3.3395780152607631e+02  3.2923474112833173e+02  3.3306625087395463e+02  5.2447739892605148e+02  5.2020506391243657e+02  5.2491078523273927e+02  5.1976862353641388e+02  5.2404553295471032e+02  5.2534496173043988e+02  5.2961616070667696e+02  5.3005220469456219e+02  5.2578038798003081e+02  3.4034157362745958e+02  3.3576967329273134e+02  3.3852902521830640e+02  2.4718460027403307e+02  3.7770815553605178e+02  2.4586129938927947e+01  2.5958178844270543e+02  3.8970856013704747e+02  6.3683621922402574e+02  4.6961938626143029e+02  2.4406989183952015e+02  3.7418727573757820e+02  2.9309507120672316e+02  2.9450984168986577e+02  2.9787584777159293e+02  4.0337283297392128e+02  4.1027568696679310e+02  4.0389480479322907e+02  6.2302504424644167e+02  6.1605740374268498e+02  6.2250185370317945e+02  4.5579312095680046e+02  4.4894449965962099e+02  4.5533848138182060e+02  2.7331400404958839e+02  2.8010969832167552e+02  2.7376224201411424e+02  1.3444880196152391e+02  1.3908075304720899e+02  1.3445333597548856e+02  1.3907639805090619e+02  1.3444418624751546e+02  1.2982128279874729e+02  1.2981653868158858e+02  6.4206285871721164e+01  6.8824559337596327e+01  6.4211370400216367e+01  6.8819619611917688e+01  6.4201321001795634e+01  5.9592744215715790e+01  5.9587653487503175e+01  6.8357779286146399e+02  2.8157886233678795e+02  2.8108680092916944e+02  2.8746637674768687e+02  6.1449206465844316e+02  6.0852653475486659e+02  6.1499475968290812e+02  4.4747028531591178e+02  4.4154511466378807e+02  4.4796706389983791e+02  4.1181524839451481e+02  4.1132161085435860e+02  4.1773179983319670e+02  3.4117880967685227e+02  3.3756802101505036e+02  3.3712256241799281e+02  5.3196550354485885e+02  5.2843738801170650e+02  5.2800549936309494e+02  5.1785902748117996e+02  5.2138515099765368e+02  5.2181870710212525e+02  1.7051292214587468e+02  1.6465117468990661e+02  1.6600821828240657e+02  1.6915701713994847e+02  5.6157595244363245e+02  5.5561646488130930e+02  5.5699613562409081e+02  5.6019745874866032e+02  0.0000000000000000e+00  0.0000000000000000e+00  4.5461183091427495e+00  7.1056579877978163e+02  7.1056579877978163e+02  7.0600152314602292e+02  7.1056579877978163e+02  0.0000000000000000e+00  2.6035908337335349e+02  3.9047591789290124e+02  6.3627366783534251e+02  4.6888834013869365e+02  6.9765156681208794e+02  6.9768289405396843e+02  6.9765270348790784e+02  6.9768361940184525e+02  3.5527897755727054e+01  3.0071682168919711e+01  3.5285161343932813e+01  3.5063086935076058e+01  3.0321205493550963e+01  2.5109811412645222e+01  2.6799364055177261e+02  2.6809246728412023e+02  3.9809137413238221e+02  3.9818797491109029e+02  4.6116180401363187e+02  4.6105630811608142e+02  6.2855601052191116e+02  6.2745196180573453e+02  2.3651363812664567e+02  2.3502235199269771e+02  3.6657998942533828e+02  3.6502835788571991e+02  2.3299235855053904e+01  2.4217493606625027e+01  2.9174962058246443e+01  1.2764262717700021e+01  1.2796697643072466e+01  1.7336236089207588e+02  1.7471629732692679e+02  5.6447306701682726e+02  5.6584946943580007e+02  1.5921737797817414e+01  1.2420439020289747e+01  1.2506850825312306e+01  1.7165690217703624e+02  1.7722092455032333e+02  1.7554373605130598e+02  5.6273935788539302e+02  5.6839614867819148e+02  5.6669052373858244e+02  2.7081236933470899e+02  2.6684125608361978e+02  2.6597126084611546e+02  4.0114619663470620e+02  3.9707418098585640e+02  3.9620572953903866e+02  4.5815510849005625e+02  4.6223755474284781e+02  4.6310818786579807e+02  6.2564732393513009e+02  6.2876272455916148e+02  6.3045268123526478e+02  2.3816247406138072e+02  2.3267200775583848e+02  2.3429301519231782e+02  3.6824660721630516e+02  3.6267804810740040e+02  3.6432172527283279e+02  2.2827222075925718e+01  1.6995383380079627e+01  1.7488294913431300e+01  5.6665411364496640e+02  5.6043625000879456e+02  5.5789708422304659e+02  5.5421988257529688e+02  5.6411530034008194e+02  9.9312985733090400e+01  1.0249200700913694e+02  1.0567717701717193e+02  9.6127832821841864e+01  9.2950294108505688e+01  2.1066600493036918e+02  2.0459141168403289e+02  2.0171387726156107e+02  1.9851969416475410e+02  2.0778805090645577e+02  1.2864273487788972e+02  1.3442465185259667e+02  1.3733035123642833e+02  1.4020858721111679e+02  1.3154808753338210e+02  5.8419152477920129e+01  6.4183986028268905e+01  6.7080387493652452e+01  6.9950704838939103e+01  6.1315311104085460e+01  1.7550767213209656e+02  1.6689413664304521e+02  1.7301057767611718e+02  1.6939147954686877e+02  1.6327648432934058e+02  2.3286258485005274e+02  2.3594269965603598e+02  2.3786683152022894e+02  3.6323319072588265e+02  3.6613849161047841e+02  3.6806668538457734e+02  4.9644699699340310e+02  4.9279888452865987e+02  4.9140757271527934e+02  2.9224047701619685e+02  2.9576607499450040e+02  2.9721200877703063e+02  3.2832194179325177e+02  3.3114159177668131e+02  3.3295160662528042e+02  3.0109354888515969e+02  3.0250498039151250e+02  3.0572277103365082e+02  4.2346194187723535e+02  4.3282523572663325e+02  4.2654930024630829e+02  4.2973667481180399e+02  4.3601208345415267e+02  6.0279842238952904e+02  5.9642236581405041e+02  5.9329752897343292e+02  5.9004934963095877e+02  5.9967328489302884e+02  2.2558051962580002e+01  2.7140885788527950e+01  2.2734596129271529e+02  2.2899309140945590e+02  3.2176203034897281e+02  3.2711341459426603e+02  3.2347074399063644e+02  3.2880855904188849e+02  1.2158048566754115e+02  1.2688125668649865e+02  1.2327087725553265e+02  1.2855247171896352e+02  5.1182415449605338e+02  5.1722324664489258e+02  5.1354453688182275e+02  5.1892061605679805e+02  1.4731872162248942e+02  1.4200668062297561e+02  1.4561673383081632e+02  1.4032460630668174e+02  5.7380321280538965e+02  5.7207298677722918e+02  5.3799427464473138e+02  5.3259399580543914e+02  5.3626558904476371e+02  5.3089243801781925e+02  7.7036873745114576e+01  7.1740613537034974e+01  7.5339123280819919e+01  7.0063681184267196e+01  5.1375986867109233e+01  5.6661127469701682e+01  5.3061589952960716e+01  5.8327356185321690e+01  1.8253922751012379e+02  1.8083734361690207e+02  3.5731432268245271e+02  3.5897297356808855e+02  4.0539750425626733e+02  4.0167135514682855e+02  3.9999231724595444e+02  4.0709822277658270e+02  4.5389615962482088e+02  4.5757548110001426e+02  4.5933544458812474e+02  4.5212739024974093e+02  6.2096792880251030e+02  6.2474062172339779e+02  6.2642243160159444e+02  6.1926092874271183e