<?xml version="1.0"?>
<VTKFile type="UnstructuredGrid"  version="0.1"  >
<UnstructuredGrid>
<Piece  NumberOfPoints="2530" NumberOfCells="4544">
<Points>
<DataArray  type="Float64"  NumberOfComponents="3"  format="ascii">-0.005 0.02899999999991747 0  -0.005567606561449265 0.02972952735170602 0  -0.005567606561449265 0.02922952735170672 0  -0.006135213122898529 0.02945905470349596 0  -0.005 0.02949999999991678 0  -0.005 0.02999999999991609 0  -0.008999999999999999 0.02999999999991609 0  -0.008477881325601233 0.02929081058473642 0  -0.008999999999999999 0.02949999999991678 0  -0.008999999999999999 0.02899999999991747 0  -0.008477881325601233 0.02979081058473573 0  -0.007955762651202469 0.02958162116955536 0  -0.008999999999999999 0.05699999999999127 0  -0.008455575182696982 0.05771508614433647 0  -0.008455575182696982 0.05721508614433456 0  -0.007911150365393967 0.05743017228867785 0  -0.008999999999999999 0.05749999999999318 0  -0.008999999999999999 0.05799999999999508 0  -0.006562500000003323 0.04699999999996404 0  -0.007410380031513026 0.04710817040743875 0  -0.006801005031513838 0.04733733707410809 0  -0.007039510063024354 0.04767467414825214 0  -0.007171875000002511 0.0467708333332947 0  -0.007781250000001699 0.04654166666662536 0  -0.006562499999996975 0.007999999999982715 0  -0.007410380031513406 0.007891829592506899 0  -0.006801005031512716 0.007662662925842622 0  -0.007039510063028456 0.007325325851702528 0  -0.007171874999997664 0.008229166666646992 0  -0.007781249999998355 0.008458333333311269 0  -0.006562499999996577 0.01099999999997411 0  -0.007410380031513544 0.01110817040744999 0  -0.006801005031512696 0.01133733707411394 0  -0.007039510063028815 0.01167467414825377 0  -0.007171874999997425 0.01077083333331016 0  -0.007781249999998272 0.01054166666664622 0  -0.005 0.02399999999993442 0  -0.005590674212597458 0.02326230314954376 0  -0.005 0.02349999999993588 0  -0.005 0.02299999999993733 0  -0.005590674212597458 0.02376230314954231 0  -0.006181348425194916 0.0235246062991502 0  -0.005 0.02099999999994222 0  -0.005564630812322937 0.0217315610722294 0  -0.005564630812322937 0.02123156107223086 0  -0.006129261624645875 0.0214631221445195 0  -0.005 0.02149999999994076 0  -0.005 0.0219999999999393 0  -0.008999999999999999 0.01999999999994686 0  -0.008409325787402531 0.01926230314955595 0  -0.008999999999999999 0.01949999999994807 0  -0.008999999999999999 0.01899999999994928 0  -0.008409325787402531 0.01976230314955475 0  -0.007818651574805061 0.01952460629916263 0  -0.008999999999999999 0.02499999999992978 0  -0.008409325787402541 0.02573769685032071 0  -0.008409325787402541 0.02523769685032191 0  -0.007818651574805081 0.02547539370071405 0  -0.008999999999999999 0.02549999999992857 0  -0.008999999999999999 0.02599999999992736 0  -0.008999999999999999 0.01599999999995916 0  -0.008409325787402512 0.01526230314956849 0  -0.008999999999999999 0.01549999999996053 0  -0.008999999999999999 0.0149999999999619 0  -0.008409325787402512 0.01576230314956713 0  -0.007818651574805024 0.01552460629917509 0  -0.008999999999999999 0.01799999999995125 0  -0.008435915727826615 0.01725427993967504 0  -0.008999999999999999 0.01749999999995307 0  -0.008999999999999999 0.01699999999995488 0  -0.008435915727826615 0.01775427993967323 0  -0.007871831455653231 0.0175085598793952 0  -0.008999999999999999 0.02699999999992539 0  -0.008434239959724898 0.02774706184850321 0  -0.008434239959724898 0.02724706184850503 0  -0.007868479919449797 0.02749412369708466 0  -0.008999999999999999 0.02749999999992357 0  -0.008999999999999999 0.02799999999992175 0  -0.008999999999999999 0.01399999999996497 0  -0.008437765310767197 0.0132645357198448 0  -0.008999999999999999 0.01349999999996647 0  -0.008999999999999999 0.01299999999996796 0  -0.008437765310767197 0.0137645357198433 0  -0.007875530621534396 0.01352907143972163 0  -0.005 0.002999999999993196 0  -0.005590674212597853 0.003737696850384681 0  -0.005590674212597853 0.003237696850385873 0  -0.006181348425195706 0.00347539370077855 0  -0.005 0.003499999999992004 0  -0.005 0.003999999999990813 0  -0.005 0.004999999999989164 0  -0.005559084057905018 0.005728935712846076 0  -0.005559084057905018 0.005228935712846881 0  -0.006118168115810037 0.005457871425704597 0  -0.005 0.00549999999998836 0  -0.005 0.005999999999987554 0  -0.005 0.05299999999997999 0  -0.005590674212599118 0.05373769685037712 0  -0.005590674212599118 0.05323769685037585 0  -0.006181348425198237 0.05347539370077171 0  -0.005 0.05349999999998126 0  -0.005 0.05399999999998254 0  -0.008999999999999999 0.05199999999997907 0  -0.008409325787400907 0.05126230314958195 0  -0.008999999999999999 0.0514999999999778 0  -0.008999999999999999 0.05099999999997653 0  -0.008409325787400907 0.05176230314958322 0  -0.007818651574801817 0.05152460629918738 0  -0.005 0.03699999999993814 0  -0.005590674212599064 0.03626230314954104 0  -0.005 0.03649999999993686 0  -0.005 0.03599999999993558 0  -0.005590674212599064 0.03676230314954232 0  -0.006181348425198127 0.03652460629914649 0  -0.005 0.03799999999993905 0  -0.005590674212599059 0.03873769685033618 0  -0.005590674212599059 0.0382376968503349 0  -0.006181348425198119 0.03847539370073075 0  -0.005 0.03849999999994033 0  -0.005 0.0389999999999416 0  -0.008999999999999999 0.04499999999995907 0  -0.008409325787400921 0.04426230314956281 0  -0.008999999999999999 0.04449999999995852 0  -0.008999999999999999 0.04399999999995796 0  -0.008409325787400921 0.04476230314956336 0  -0.007818651574801844 0.04452460629916766 0  -0.005 0.05499999999998635 0  -0.005561924071815199 0.05574035198473451 0  -0.005561924071815199 0.05524035198473292 0  -0.006123848143630398 0.05548070396947949 0  -0.005 0.05549999999998795 0  -0.005 0.05599999999998954 0  -0.008999999999999999 0.04999999999997271 0  -0.008437330811979935 0.04925705943891855 0  -0.008999999999999999 0.04949999999997112 0  -0.008999999999999999 0.04899999999996952 0  -0.008437330811979935 0.04975705943892015 0  -0.00787466162395987 0.04951411887786759 0  -0.005 0.03499999999993177 0  -0.005554118008684467 0.03427588870688815 0  -0.005 0.03449999999993018 0  -0.005 0.03399999999992859 0  -0.005554118008684467 0.03477588870688975 0  -0.006108236017368934 0.03455177741384772 0  -0.005 0.03999999999994542 0  -0.005565787062146483 0.04074708348495108 0  -0.005565787062146483 0.0402470834849495 0  -0.006131574124292967 0.04049416696995358 0  -0.005 0.04049999999994701 0  -0.005 0.04099999999994859 0  -0.008999999999999999 0.04299999999995415 0  -0.008434212937853522 0.04225291651494782 0  -0.008999999999999999 0.04249999999995224 0  -0.008999999999999999 0.04199999999995033 0  -0.008434212937853522 0.04275291651494972 0  -0.007868425875707045 0.0425058330299453 0  -0.008249816699198017 0.05835749671693449 0  -0.008080483532295991 0.05789383450280617 0  -0.008624908349599008 0.05817874835846479 0  -0.005 0.05699999999999127 0  -0.005564814814815426 0.05763425925925437 0  -0.005564814814815426 0.05713425925925246 0  -0.006129629629630853 0.05726851851851365 0  -0.005 0.05749999999999318 0  -0.005 0.05799999999999508 0  -0.007812500000000279 0.05881250000000175 0  -0.007487215909092686 0.05955539772727215 0  -0.007906250000003019 0.05940625000000088 0  -0.008000000000005759 0.06 0  -0.007393465909089946 0.05896164772727303 0  -0.006974431818179612 0.0591107954545443 0  -0.008269129548671622 0.01109390078343537 0  -0.008025189774334947 0.0108177837250408 0  -0.008390624999999135 0.01027083333331175 0  -0.008634564774335812 0.01054695039170632 0  -0.008999999999999999 0.009999999999977279 0  -0.008269129548671525 0.007906099216521786 0  -0.00802518977433494 0.008182216274916528 0  -0.008390624999999177 0.008729166666645676 0  -0.008634564774335763 0.008453049608250935 0  -0.008999999999999999 0.008999999999980083 0  -0.008269129548669827 0.04709390078342088 0  -0.008025189774335762 0.04681778372502312 0  -0.008390625000000849 0.04627083333329277 0  -0.008634564774334913 0.04654695039169052 0  -0.008999999999999999 0.04599999999996016 0  -0.008273872863797757 0.03191632356681653 0  -0.008025109529492163 0.03218405924682916 0  -0.008388173097593283 0.03272589746338432 0  -0.007776346195186568 0.03245179492684179 0  -0.008636936431898879 0.03245816178337169 0  -0.008999999999999999 0.03299999999992685 0  -0.008017414784897241 0.03353452586113938 0  -0.007896880490041905 0.03299316039399058 0  -0.00850870739244862 0.03326726293053311 0  -0.007057671392325 0.03137590312127503 0  -0.007417008793755784 0.03191384902405841 0  -0.007160048097594804 0.03223839746338272 0  -0.00680071069616402 0.03170045156059935 0  -0.006543750000003041 0.03202499999992366 0  -0.007883928571428122 0.00949999999997868 0  -0.007832589285713197 0.01002083333331245 0  -0.00844196428571406 0.009749999999977979 0  -0.007832589285713239 0.008979166666644976 0  -0.00844196428571406 0.009249999999979382 0  -0.007040819314031163 0.03285586844587998 0  -0.007408582754608865 0.03265383168636089 0  -0.006792284657017102 0.03244043422290183 0  -0.005872353521460591 0.05810919245179558 0  -0.006000991575545722 0.05768885548515462 0  -0.005436176760730296 0.05805459622589533 0  -0.00786502184884123 0.04771008739533377 0  -0.007823135924421465 0.04712587703097956 0  -0.007452265955932792 0.04769238077179296 0  -0.007865021848844505 0.007289912604609198 0  -0.00782313592442143 0.007874122968960234 0  -0.007452265955936481 0.007307619228155863 0  -0.007865021848844829 0.01171008739534793 0  -0.007823135924421552 0.01112587703099708 0  -0.007452265955936822 0.01169238077180085 0  -0.008184288543895116 0.02249999999993832 0  -0.007988733012405148 0.02298711832054615 0  -0.007383909739089816 0.02298711832054615 0  -0.007793177480915178 0.02347423664115397 0  -0.007579465270579786 0.02249999999993833 0  -0.006974641997264455 0.02249999999993833 0  -0.007988733012405137 0.02201288167933051 0  -0.007383909739089808 0.02201288167933051 0  -0.007793177480915159 0.02152576335872269 0  -0.005819248789178329 0.02649
[...]
<PointData  Scalars="f_25"> 
<DataArray  type="Float64"  Name="f_25"  format="ascii">3.2765546627501668e-01  3.3589796574606767e-01  3.3024876113941820e-01  3.3284205786775928e-01  3.3330467126251839e-01  3.3895387726164317e-01  3.3895387946054101e-01  3.3094115750922259e-01  3.3330466824457433e-01  3.2765545724536932e-01  3.3659036778942064e-01  3.3422685868686142e-01  6.4401180951286030e-01  6.5209163755023503e-01  6.4644220483012349e-01  6.4887263236545534e-01  6.4966139095149689e-01  6.5531107198620653e-01  5.3102674232509284e-01  5.3224890647841849e-01  5.3483814882502922e-01  5.3864956059286850e-01  5.2843750167598225e-01  5.2584825060010665e-01  9.0387877217953827e-02  8.9165721775441201e-02  8.6576490513307805e-02  8.2765106835873223e-02  9.2977106949651833e-02  9.5566341392934642e-02  1.2428324430020951e-01  1.2550539823761103e-01  1.2809463769130339e-01  1.3190603193848963e-01  1.2169400835796443e-01  1.1910477074300901e-01  2.7116339198480249e-01  2.6282857745113536e-01  2.6551417661970894e-01  2.5986495856003239e-01  2.6847779697354268e-01  2.6579219666987225e-01  2.3726806993817892e-01  2.4553358493875266e-01  2.3988436009339312e-01  2.4250064782783665e-01  2.4291729968719000e-01  2.4856652593070913e-01  2.2596961097535703e-01  2.1763474491250098e-01  2.2032036199249930e-01  2.1467111263657615e-01  2.2328399081769656e-01  2.2059837414801706e-01  2.8246178572293651e-01  2.9079659519204015e-01  2.8514738285047481e-01  2.8783298619438791e-01  2.8811099809400387e-01  2.9376021559793852e-01  1.8077564075637151e-01  1.7244078074171784e-01  1.7512639900400062e-01  1.6947716373090058e-01  1.7809001841403466e-01  1.7540439910394412e-01  2.0337261387863206e-01  1.9494709787661793e-01  1.9772336332125343e-01  1.9207411640109573e-01  2.0059634709390242e-01  1.9782008063209244e-01  3.0505863375694686e-01  3.1349924589497424e-01  3.0785003883496004e-01  3.1064145182963437e-01  3.1070783891708292e-01  3.1635704245114282e-01  1.5817868700146737e-01  1.4986905184249563e-01  1.5252944235297791e-01  1.4688019757748555e-01  1.5551829307632256e-01  1.5285790042228856e-01  3.3895525201637640e-02  4.2230392907501003e-02  3.6581146056379660e-02  3.9266763512382126e-02  3.9544775305644861e-02  4.5194025263733111e-02  5.6492512650136141e-02  6.4728365505364094e-02  5.9079130493203638e-02  6.1665750599655365e-02  6.2141745800171143e-02  6.7790980957691510e-02  5.9881761182570092e-01  6.0715253960507354e-01  6.0150325291159001e-01  6.0418890915233392e-01  6.0446690731705632e-01  6.1011621551645023e-01  5.8751930536007069e-01  5.7918440605366650e-01  5.8187003423179517e-01  5.7622078488796091e-01  5.8483366505611512e-01  5.8214802219301154e-01  4.1804273160123762e-01  4.0970796484893646e-01  4.1239354813177687e-01  4.0674435921944652e-01  4.1535715312421434e-01  4.1267156717397724e-01  4.2934107389769977e-01  4.3767588408608304e-01  4.3202668707094638e-01  4.3471229723129001e-01  4.3499028229390302e-01  4.4063947845988632e-01  5.0842981631314921e-01  5.0009501410207358e-01  5.0278061055290746e-01  4.9713140725111626e-01  5.0574421846671291e-01  5.0305862371955912e-01  6.2141511106791647e-01  6.2978017404620479e-01  6.2413080877727456e-01  6.2684641469390778e-01  6.2706453927935901e-01  6.3271384486326865e-01  5.6492230302862223e-01  5.5652818854650909e-01  5.5927304872807215e-01  5.5362378220082675e-01  5.6217745194524649e-01  5.5943258426081943e-01  3.9544597969869100e-01  3.8726467603940284e-01  3.8979677828537290e-01  3.8414756843562503e-01  3.9291388191095916e-01  3.9038178415166880e-01  4.5193784177199192e-01  4.6037868103917895e-01  4.5472948448977663e-01  4.5752114136997807e-01  4.5758702540152463e-01  4.6323622145455506e-01  4.8583298837464173e-01  4.7739213016153254e-01  4.8018377985225302e-01  4.7453457636027785e-01  4.8304133543150352e-01  4.8024968492662373e-01  6.5935043126363824e-01  6.5411133793784992e-01  6.5733084739656988e-01  6.4401208980503211e-01  6.5117770706495837e-01  6.4552905532838811e-01  6.4704643765196923e-01  6.4966077703634062e-01  6.5530923939351615e-01  6.6449061323615022e-01  6.7288336860029363e-01  6.7119832954472580e-01  6.7790622109228693e-01  6.6617564565154253e-01  6.6786029148666726e-01  1.2534415923517167e-01  1.2222446324653966e-01  1.1604475488124623e-01  1.1916444448795691e-01  1.1298474290306000e-01  8.9326950359321949e-02  9.2446646184562623e-02  9.8626329945663477e-02  9.5506633072985597e-02  1.0168629354746836e-01  5.3208766183570111e-01  5.2896795740220459e-01  5.2278824077277941e-01  5.2590793331745656e-01  5.1972823693975534e-01  3.6060531927272166e-01  3.6363031446000976e-01  3.6975224252972794e-01  3.6665530863152423e-01  3.6672724604753293e-01  3.7284917868138973e-01  3.7888848208922299e-01  3.7277189148090345e-01  3.7586883472256050e-01  3.5449941615626807e-01  3.6057736160541887e-01  3.6424425081708933e-01  3.5816630510021935e-01  3.6183319159615557e-01  1.0733555501667306e-01  1.1322016400233267e-01  1.1016013868622908e-01  1.0145095934515734e-01  1.0451093480443018e-01  3.7122070253401263e-01  3.6893800643691055e-01  3.6652694916587353e-01  6.5654337080828840e-01  6.5179499720065648e-01  6.5592599447004207e-01  5.3904967791954672e-01  5.3244895699993788e-01  5.3884962678132120e-01  8.2364994832012497e-02  8.8965666831744547e-02  8.2565050745380314e-02  1.3230613894859508e-01  1.2570544929191918e-01  1.3210608566484197e-01  2.5421578265851386e-01  2.5971944201105623e-01  2.5971943579809748e-01  2.6522309791029780e-01  2.5421577215738511e-01  2.5421576333550366e-01  2.4871210946887512e-01  2.4871209848228265e-01  2.4320842560348413e-01  2.9940941645706981e-01  3.0491310102448249e-01  3.0478855105871183e-01  3.1041677715175842e-01  2.9928487239260532e-01  2.9916032329295800e-01  2.0902188060991964e-01  2.0351817620824986e-01  2.0364398553779450e-01  1.9801446399549183e-01  2.0914769363200864e-01  2.0927350377957685e-01  2.9390574116061757e-01  2.9378120088773751e-01  2.8840208112687576e-01  2.1452557517856088e-01  2.1465138970480563e-01  2.2002927327464283e-01  1.6382788790036260e-01  1.6933158050891661e-01  1.6933158959158814e-01  1.7483527692660453e-01  1.6382789588868754e-01  1.6382790265574082e-01  1.5832419987956137e-01  1.5832420738830369e-01  1.5282051321125714e-01  5.0843247003836876e-02  4.5339555454759921e-02  4.5339560134510432e-02  3.9835859063019001e-02  5.0843255491028645e-02  5.0843259626261426e-02  5.6346941881514519e-02  5.6346951098165905e-02  6.1850639415463815e-02  5.7057146233301759e-01  5.7607514304189000e-01  5.7625856547572007e-01  5.8157883328791216e-01  5.7075487735943198e-01  5.7093829472243829e-01  4.0109519928327853e-01  4.0659883640042244e-01  4.0679995254934748e-01  4.1210247101284159e-01  4.0129631068373861e-01  4.0149742747000466e-01  4.4628865899225284e-01  4.4078502136757031e-01  4.4065829670991435e-01  4.3528137854148080e-01  4.4616193944431359e-01  4.4603520718371126e-01  6.1576565678320416e-01  6.1026187444294311e-01  6.1007600116897254e-01  6.0475811673365110e-01  6.1557979219696202e-01  6.1539393955512223e-01  4.9148220909260737e-01  4.9698587505122405e-01  4.9698586969255815e-01  5.0248954031043414e-01  4.9148220389199387e-01  4.9148220034140916e-01  5.6506779038908883e-01  5.6525120006150820e-01  5.5956410051635996e-01  4.5179230755676880e-01  4.5166558510949989e-01  4.5729596125013616e-01  3.9559154958925929e-01  3.9579265879454617e-01  3.9008789289660817e-01  6.2126946016154971e-01  6.2108364261105997e-01  6.2677332636474370e-01  4.8597853813715247e-01  4.8597853475121844e-01  4.8047487501847236e-01  6.7790622109228693e-01  6.7790622109228693e-01  6.7288339269032971e-01  5.1532715553739505e-01  5.2058769914415848e-01  5.1752769528671394e-01  1.1504819591614644e-01  1.1707648378682946e-01  1.1966571832476826e-01  9.9622913533654184e-02  9.7594629220235485e-02  9.5005391825000188e-02  5.2195809373440993e-01  5.2390317159532052e-01  5.2649241658351131e-01  3.2074820959407074e-01  3.2679513188325554e-01  3.2420183396618862e-01  1.5780957657008016e-02  2.3369015429885051e-02  1.7580390653459871e-02  1.9379825876330116e-02  2.1569579142651597e-02  2.7358201576305211e-02  8.7237751895971397e-03  8.7430552837376857e-03  4.3811687265463330e-03  8.7623369741322444e-03  4.3618914635419432e-03  0.0000000000000000e+00  3.4301307586132901e-01  3.3792756477742547e-01  3.3824134649082355e-01  3.4332685631368104e-01  3.4364063609283529e-01  8.7389560761034490e-03  8.7506466990284314e-03  4.3811692457720475e-03  4.3694810861519967e-03  0.0000000000000000e+00  1.8642484043204582e-01  1.9221965121584195e-01  1.9221965258932155e-01  1.8642485350375057e-01  1.8642486157394680e-01  1.8063005643365995e-01  1.8063006771414258e-01  4.2369190766666626e-01  4.2948663998118020e-01  4.2948665012584880e-01  4.2369191521351618e-01  4.2369192503496195e-01  4.1789718277454968e-01  4.1789718393578368e-01  3.1558249746490169e-01  3.1621152665410951e-01  3.2137724308939647e-01  3.2200627037613083e-01  3.2323666935303774e-01  3.2873176116048991e-01  3.2544606058858266e-01  3.2742416526532814e-01  3.3597038257517330e-02  3.4041071230825497e-02  2.7802242899650120e-02  2.8246275957522694e-02  3.8448819222231889e-01  3.8542324230849268e-01  3.7982353330892771e-01  3.8075858997101791e-01  6.3687256240408474e-01  6.3182309126455150e-01  6.3223101380143443e-01  6.3728073904439120e-01  6.3768864206551046e-01  3.3121670330061137e-01  3.3202938314206787e-01  3.2661148899663628e-01  3.3742866641695957e-01  3.3272177993610502e-01  3.3893374786440633e-01  3.4343665650942845e-01  3.3883175664155790e-01  3.4353864627088532e-01  6.4287249788066358e-01  6.4044209667206176e-01  1.0347924213564473e-01  1.1119187784165195e-01  2.7538613527476108e-01  2.7030461831563263e-01  2.7101784589351352e-01  2.7609936476714148e-01  2.7681260133586644e-01  2.3304530735409482e-01  2.3812687045425518e-01  2.3740689687056199e-01  2.3232533675819397e-01  2.3160537103725370e-01  2.3019239495366375e-01  2.2511083658952027e-01  2.2581732412086883e-01  2.3089888921651491e-01  2.7823905828272305e-01  2.8332057247885245e-01  2.8260735132812381e-01  2.7752584513330614e-01  5.9174191296410572e-01  5.8666037025864948e-01  5.8737362747096333e-01  5.9245516150674171e-01  5.9316844121929713e-01  5.9459501755980759e-01  5.9967656293190619e-01  5.9896327091980139e-01  5.9388174016208628e-01  4.6749716996657020e-01  4.6239657116802169e-01  4.6314344671207525e-01  4.6824404983559970e-01  4.6899092875939602e-01  4.7027364723558340e-01  4.7537425539573169e-01  4.7473289377800493e-01  4.6963228763834641e-01  1.0733555476965985e-01  1.0347923435133564e-01  1.0733556391189247e-01  1.1119187485495866e-01  1.4410267539901550e-01  1.4846159513038185e-01  1.4767232504696817e-01  1.4331340473569901e-01  1.4252413103577222e-01  5.1120735351803159e-01  5.0684844489554359e-01  5.0828428889442956e-01  5.1264319671714387e-01  5.1407903244094533e-01  5.5094631263119298e-01  5.5525520590171906e-01  5.5440534680191966e-01  5.5009644282462999e-01  5.4924660219366150e-01  3.2722668759273738e-01  3.2262147172663203e-01  6.4328077962242269e-01  2.6013467735641255e-02  3.2640123886320260e-02  2.9954498055556614e-02  2.6617049128117048e-01  2.6569679440409910e-01  2.7149154839844597e-01  2.4223790594896677e-01  2.4272316427337104e-01  2.3692164457426468e-01  2.2097667185768208e-01  2.2050297161016727e-01  2.2629102185853961e-01  2.8745469748922148e-01  2.8792839022853506e-01  2.8213364993210382e-01  3.0994391741958960e-01  3.1018035222762158e-01  3.0455212361444478e-01  1.9849279207069595e-01  1.9825362623481882e-01  2.0388314971686139e-01  1.7578268603206507e-01  1.7530898025259770e-01  1.8110377180753812e-01  1.5351106665733785e-01  1.5316579022182325e-01  1.5866948492036201e-01  3.8888463522082015e-02  3.9362162082136831e-02  3.3567372927756196e-02  6.1138937626382645e-02  6.1494789739803365e-02  5.5991101315010075e-02  4.3429175522496011e-01  4.3478657104805390e-01  4.2899183893889231e-01  5.8258740288817912e-01  5.8208311613223551e-01  5.8787792027136232e-01  4.1311689948249564e-01  4.1260968379125540e-01  4.1840441014495316e-01  5.0343692420080999e-01  5.0296323236753537e-01  5.0875797800633282e-01  6.0374869011579502e-01  6.0425338397180961e-01  5.9845854130981391e-01  6.2614233382795270e-01  6.2645791422390518e-01  6.2076807969994441e-01  3.9104938914543780e-01  3.9056863878645037e-01  3.9627341007325628e-01  5.6028412703362196e-01  5.5992411706680534e-01  5.6561121483014176e-01  4.5686471361574421e-01  4.5708034677003917e-01  4.5144995983115876e-01  4.8092371053949629e-01  4.8069928654178617e-01  4.8620295461331420e-01  7.1259757285132078e-02  6.6555199521371164e-02  6.7009110758082524e-02  7.1713670619884443e-02  7.2167572654225645e-02  3.7505458834116678e-01  3.7598964550020797e-01  3.8136519054103074e-01  3.8587348932626908e-01  3.8557018801909165e-01  3.8106188810858899e-01  2.5421574436037453e-01  2.4835819822944635e-01  2.5139113388990775e-01  2.6000397007278170e-01  2.5704034981523849e-01  2.0910538003107818e-01  2.1485187814929654e-01  2.1188824603391801e-01  2.9940941940195642e-01  2.9362120247904450e-01  2.9658481744566068e-01  3.0502543669665189e-01  3.0223402697522705e-01  2.0346273097828502e-01  2.0623899679109881e-01  1.6382791440759725e-01  1.6961615270164687e-01  1.6665254378362393e-01  1.5834290668993417e-01  1.6100330434376173e-01  5.0843264031303390e-02  5.6254507918543264e-02  5.3667889196768764e-02  4.5055014015218824e-02  4.8018646335192476e-02  4.9148219826686612e-01  4.8586594108120856e-01  4.8865759405775233e-01  6.1576563101168391e-01  6.2130602020907233e-01  6.1859037945201589e-01  5.7057153017990336e-01  5.6500205746712606e-01  5.6774692265535875e-01  4.0126387773954059e-01  3.9582283433546267e-01  3.9835493204611178e-01  4.4620903338864171e-01  4.5186508242095796e-01  4.4907343211373335e-01  4.9727041155506696e-01  4.9430680458167836e-01  5.7635976718680770e-01  5.7339615931932886e-01  6.0997723725392794e-01  6.1294094451098768e-01  4.0696772458545083e-01  4.0400411969004163e-01  4.4046066252856664e-01  4.4342425120035872e-01  1.8642487036360439e-01  1.9212247417457551e-01  1.9212247168485722e-01  1.8642486750358123e-01  1.8091463428021129e-01  1.8091462775761721e-01  4.2369193700893931e-01  4.2920211067228131e-01  4.2920211389034696e-01  4.2369193227859342e-01  4.1818175092491311e-01  4.1818174757385579e-01  7.1670442026653319e-02  6.6668097330651752e-02  6.6916663106398530e-02  7.1919007816478864e-02  6.6632471955717854e-01  6.7288287822427850e-01  6.7211522264867796e-01  6.7790622109228693e-01  6.6709236282034035e-01  5.0919288916929550e-01  5.1187848552176562e-01  9.0387882321652069e-02  8.9857415846455777e-02  9.6037092991867412e-02  1.2428321557237375e-01  1.1863397762275769e-01  1.2481368688337439e-01  5.3102671020905357e-01  5.2537745112837297e-01  5.3155718654971063e-01  3.1693906158679391e-01  3.1632386364041037e-01  2.8160955482090066e-01  2.8232278918351000e-01  2.7201564629736463e-01  2.7130241041446757e-01  2.3634653048233667e-01  2.3705301715919866e-01  2.2682183720624888e-01  2.2610187190878878e-01  5.9796538140746491e-01  5.9867864695752881e-01  5.8837153591183411e-01  5.8765824534748190e-01  4.6389739997520896e-01  4.6325603947682431e-01  4.7387341554585549e-01  4.7462029696492247e-01  1.4237115329913955e-01  1.4761452818330578e-01  1.4769101549174662e-01  1.4244764378487115e-01  5.4863402445176579e-01  5.5403332622766266e-01  5.5433959641269648e-01  5.4894031704641966e-01  6.3708956356410273e-01  6.3196799870534937e-01  6.3226755630124754e-01  6.3738924295074817e-01  5.0856882516887325e-01  5.1470309472049469e-01  2.6019312724896371e-01  2.4822684484144442e-01  1.9245882399678335e-01  3.1597509913275762e-01  2.1512508752504775e-01  2.9330750713032366e-01  1.6980529291294255e-01  1.4801760048635812e-01  4.4865864752231463e-02  6.6653256953421267e-02  5.7676284678385603e-01  6.0957128197441113e-01  4.0730716520657301e-01  4.4016348675671180e-01  4.9745956285871540e-01  5.5476537162808304e-01  4.6292782259131893e-01  6.3191553778668386e-01  3.8590399184493568e-01  4.7495730175713530e-01  3.3756523427916733e-02  2.7129876979647700e-02  2.2950745772428494e-01  2.7892395293834377e-01  2.7470122067917407e-01  2.3373023470198873e-01  5.9527975144929002e-01  5.9105718445155997e-01  4.6675494329942219e-01  4.7101586846827270e-01  3.1979685297604110e-01  6.7790622109228693e-01  2.3813052003603639e-02  2.1493593807351830e-01  2.0918944108964199e-01  2.9349665214172532e-01  2.9928487175154883e-01  2.4835820823806382e-01  2.5421575257763906e-01  2.6000397499046335e-01  2.0354679319242908e-01  3.0490089118826402e-01  1.6961614878245468e-01  1.6382790657510390e-01  1.5834290256726316e-01  5.6254506356174488e-02  5.0843262461172149e-02  4.5055012863000052e-02  4.8586594134440925e-01  4.9148219867819187e-01  6.2112014316076414e-01  6.1557975343835813e-01  3.9593960794615529e-01  4.0138065160390241e-01  4.0708449739422237e-01  5.6518544023130546e-01  5.7075491457530281e-01  5.7654314883512103e-01  6.0979140214188032e-01  4.5177817528718495e-01  4.4612211981027006e-01  4.4037375255530614e-01  4.9727041337223488e-01  5.1864261462060091e-01  5.1801855966872878e-01  3.4098347497301629e-01  3.5363386169452660e-01  3.6014458439799213e-01  3.5406663926602033e-01  3.6155073288838202e-01  3.6107802657714455e-01  3.6719995386824716e-01  1.5922143959398546e-02  2.2696648676920225e-02  1.7650984916743360e-02  2.0967805952574182e-02  2.4236927660307636e-01  2.6598134505653453e-01  2.2078752387105327e-01  2.8764384254001379e-01  1.9815643570350999e-01  3.1029268452354991e-01  6.0396878320199510e-01  5.8236770605004218e-01  4.1289423501930644e-01  4.3450202646802805e-01  5.0324777344109439e-01  1.7559354269690122e-01  4.5719292823287022e-01  6.2649429397089906e-01  5.5985835373330950e-01  3.9071558514663585e-01  3.9077612986257108e-02  4.8058669968815027e-01  1.5318448488182174e-01  6.1402345506089945e-02  4.2651650632000471e-01  4.2086732903321405e-01  1.8924949301093466e-01  1.8360025356195514e-01  0.0000000000000000e+00  0.0000000000000000e+00  4.3811674285699287e-03  0.0000000000000000e+00  3.8275637881130092e-01  3.4119526906065573e-01  6.4886069845276795e-01  6.4886674819918078e-01  6.4327492474374504e-01  6.9730711508488794e-02  5.5112888719287678e-01  1.4462567495943018e-01  6.3490167901774908e-01  1.3733864602777165e-01  1.3741513742918018e-01  5.4384185955796105e-01  5.4414814601953732e-01  6.4206807552754108e-01  6.4236778820099416e-01  3.4853525825116571e-01  3.4863724881988822e-01  7.6812387786439520e-02  7.7266286773269438e-02  6.7042771653927202e-01  6.6745936628672931e-01  6.7416685744665206e-01  1.2252365635903907e-02  1.2271647043523152e-02  6.6157467910818146e-01  6.6646527705604075e-01  6.6660675117800294e-01  6.6143349706892229e-01  1.2330549423716298e-02  1.2342240056390992e-02  3.7262781748722762e-01  3.7669320341685630e-01  3.7699650102822335e-01  6.6095792226332795e-01  7.9988432039931515e-02  7.6078001856787356e-02  7.5829437399539193e-02  3.5124423255612663e-01  3.4744243494185939e-01  3.4712865550874117e-01  8.0727217239383989e-02  7.5174593315519150e-02  7.9089431684898126e-02  1.0733554385379923e-01  1.1040612681248423e-01  1.1347670487336514e-01  1.0426496943487522e-01  1.0119438263441252e-01  1.6961060230663853e-02  2.2159629029692186e-02  1.6371006687458348e-02  1.3484441037523837e-01  1.3868427063404681e-01  1.3947354617873622e-01  5.2022020617804665e-01  5.1714961795261849e-01  5.1571378040786342e-01  5.4146213649986619e-01  5.4535436391680980e-01  5.4620422633696897e-01  5.3556866445804130e-01  5.4068745726789380e-01  5.3720644667392359e-01  5.4232523416179457e-01  1.2882514733482794e-01  1.3394392067396538e-01  1.3046292866974757e-01  1.3558170591750135e-01  8.5845972814733149e-02  8.4208198377159441e-02  5.4547962481014434e-01  1.3897642961750070e-01  6.6488971302731048e-01  6.6297991766169972e-01  6.6851790686141699e-01  6.6660817188895094e-01  3.5542880892062151e-01  3.5194308188450285e-01  3.5025230211400793e-01  3.5711959053196102e-01  3.4684447867821333e-01  6.4055081373955425e