<?xml version="1.0"?>
<VTKFile type="UnstructuredGrid"  version="0.1"  >
<UnstructuredGrid>
<Piece  NumberOfPoints="2690" NumberOfCells="4864">
<Points>
<DataArray  type="Float64"  NumberOfComponents="3"  format="ascii">-5.03979027009542 22.0087388885875 0  -5.635858088929261 21.27132528912474 0  -5.038996779043546 21.50945609587102 0  -5.038082784719374 21.00879316867475 0  -5.636635588558583 21.77148244328526 0  -6.233504561608059 21.53281457243431 0  -9 21.99999999996945 0  -8.402684228856609 21.26432622575793 0  -9 21.49999999997139 0  -9 20.99999999997333 0  -8.40282246097421 21.7643159937881 0  -7.805514490407896 21.52860924982073 0  -9 32.9999999999446 0  -8.405718873678795 32.26429788186851 0  -9 32.49999999994358 0  -9 31.99999999994255 0  -8.405857122336549 32.76430043239755 0  -7.8115832091546 32.52858032726063 0  -5.059932445455217 33.0094509560703 0  -5.570783153757256 32.30570931078942 0  -5.059100504463315 32.51070400578313 0  -5.058142500470478 32.00914907752666 0  -5.571584690781261 32.80595013784286 0  -6.083260948022499 32.60109603350809 0  -5.098767617511681 54.00902494922851 0  -5.688087175517953 54.74610292639642 0  -5.687321869038219 54.24647797190345 0  -6.275782506635082 54.48261019717625 0  -5.099647596164609 54.50967948840357 0  -5.100461768663566 55.0091185614045 0  -9 54.99999999998974 0  -8.483076637959293 54.29765718641059 0  -9 54.49999999998872 0  -9 53.99999999998769 0  -8.483196964470002 54.79762023569456 0  -7.966298144087497 54.59525226528547 0  -9 39.99999999995897 0  -8.408066231044769 40.73926999993331 0  -8.407927984276807 40.23927181464952 0  -7.815987804372432 40.47851783167557 0  -9 40.49999999996 0  -9 40.99999999996102 0  -5.074630891311002 41.00837373151664 0  -5.639231701141152 40.27682650826643 0  -5.073807645901925 40.50972387800147 0  -5.072919300572641 40.00942806582873 0  -5.640011130074706 40.77668434692074 0  -6.205439680796055 40.5434688547186 0  -9 55.99999999999179 0  -8.436663003581168 56.7449660895936 0  -8.436543873236561 56.2449428658338 0  -7.873212542953705 56.48988495163515 0  -9 56.49999999999282 0  -9 56.99999999999384 0  -5.102453741805455 56.00862637252857 0  -5.667018855182145 56.75197295195468 0  -5.666259864436858 56.2519368461144 0  -6.229946415483472 56.49416696778555 0  -5.103388964016292 56.5099687130265 0  -5.104200000352897 57.00914425854096 0  -7.46811345834246 43.00494639053601 0  -6.636971308169757 43.11589593656203 0  -7.234559273017596 43.34312230292138 0  -7.00107767500739 43.68130542331475 0  -6.870453642129788 42.7776662973792 0  -6.272666824588537 42.55038766243965 0  -6.616941687206907 49.00932841869264 0  -7.445803418418362 48.89785649347033 0  -6.8497715515287 48.67108637173475 0  -7.082679997852502 48.33281685178343 0  -7.212900964075623 49.23607966339428 0  -7.808729979517417 49.46289783364475 0  -6.613579436374361 46.00876386265918 0  -7.44361238431548 45.89749288804918 0  -6.846746121816858 45.67042108282462 0  -7.079988679940517 45.33212341589194 0  -7.210375205776661 46.23578440758781 0  -7.807043995329698 46.46277192029044 0  -6.570144660870216 7.009080626769572 0  -7.415287479881037 6.8977413798982 0  -6.807564250945621 6.670833532062359 0  -7.045059854403386 6.332588687016636 0  -7.177797303122759 7.23598509142667 0  -7.785323817600474 7.46288260222438 0  -7.458791021346827 30.00489062144282 0  -6.622587944057829 30.11577262322791 0  -7.22381607385987 30.34293339483537 0  -6.988915021510984 30.68094627630752 0  -6.857491856968136 29.77770089850824 0  -6.256063718592155 29.55055890904535 0  -6.566913426630565 4.008647368982738 0  -7.413347977629918 4.113812488852377 0  -6.805307029545032 4.345214741504419 0  -7.043632781943352 4.68175341922211 0  -7.175026714325961 3.77725584210279 0  -7.783248677651939 3.545921480510666 0  -6.57344185218698 10.00916035559569 0  -7.417589960096654 10.11415536779672 0  -6.811205669491701 10.34561311845096 0  -7.048899479443768 10.68206612696355 0  -7.179890765211375 9.777710976761941 0  -7.786467272550518 9.546251243152819 0  -6.576747089288349 13.00923890146013 0  -7.419589457512609 12.89786889745486 0  -6.813516850075248 12.67099480222253 0  -7.050362162196981 12.33275373999829 0  -7.18274745433049 13.2361235550018 0  -7.78862374308447 13.46298201085967 0  -6.580067008373927 16.00938031362277 0  -7.421756763822384 15.8979099995398 0  -6.816510707642832 15.67114649385365 0  -7.053031295284542 15.33289006766759 0  -7.185241818550706 16.23613277258438 0  -7.790288826933612 16.4629381522506 0  -6.58343461006818 19.00840039568137 0  -7.424111821071002 19.11356268574653 0  -6.820237572037047 19.34470377674085 0  -7.056963253931976 19.68105998916754 0  -7.187380259839978 18.77717964080732 0  -7.791457391355348 18.54593447018719 0  -6.592354342428627 27.00808624206092 0  -7.429929033522049 27.1133657491408 0  -6.828276663682405 27.34456637666984 0  -7.064126553920575 27.68105909557328 0  -7.194075913757236 26.77682350780686 0  -7.79592370961601 26.54563416130724 0  -8.275437799569577 19.09637591652148 0  -8.03347884672905 18.82114136889307 0  -8.395652299457453 18.27299163252378 0  -8.637626222578847 18.54822619817046 0  -9 17.99999999998495 0  -8.278113079826083 27.09627686542388 0  -8.03704901089568 26.82095659616803 0  -8.397886689587848 26.27280906649474 0  -8.638965396851052 26.54813681064042 0  -9 25.99999999995395 0  -8.274364975986286 15.90888198581896 0  -8.032295966123577 16.18591503952851 0  -8.395219906382744 16.73144923953622 0  -8.637273961432353 16.4544265865644 0  -9 16.99999999998883 0  -5.775573100270583 30.10458539612839 0  -6.01578534737586 29.82756110975748 0  -5.654436638126244 29.2816991299491 0  -5.414206580776783 29.55913401249756 0  -5.052525967776284 29.00872525301734 0  -8.273367889075118 12.90887862454505 0  -8.030965192234261 13.18592847876362 0  -8.394386335395225 13.73149481101857 0  -8.636774551880018 13.45444354877371 0  -9 13.99999999999401 0  -8.272439267882859 10.09665356654962 0  -8.029483467245509 9.821452771131105 0  -8.393159025088339 9.273124173143525 0  -8.636129694075102 9.548325042294614 0  -9 8.99999999999857 0  -8.270495281592151 4.096491294340627 0  -8.026899487799314 3.821213687918102 0  -8.391563947692164 3.272948057169697 0  -8.635167586460524 3.548227511269622 0  -9 2.999999999998668 0  -8.271390801653002 6.908814813074685 0  -8.028326846085973 7.185846967994374 0  -8.392736038502933 7.731443917959372 0  -8.635785241514611 7.454412738327436 0  -9 7.999999999999485 0  -8.284413636404665 45.90870032925022 0  -8.04569802877405 46.18572599066381 0  -8.403597274589387 46.73140178865069 0  -8.642297947132265 46.4543770214558 0  -9 46.99999999997333 0  -8.285421149375942 48.90885238192926 0  -8.047044143322971 49.18587999763571 0  -8.404441419759342 49.73142839474955 0  -8.642803349910675 49.45441350462104 0  -9 49.99999999997949 0  -5.795091265484085 43.1046909816285 0  -6.033845382919364 42.82753529280144 0  -5.674680441436001 42.28140611265223 0  -5.435910883485939 42.55902009024309 0  -5.076401027217907 42.0083725274016 0  -5.761654059147423 23.92710931764064 0  -6.008087947108741 24.19390230609106 0  -5.649856783675085 24.7367769821098 0  -6.254456540847238 24.46072388641383 0  -5.403465208293404 24.47039808458911 0  -5.045369667427228 25.0086917759586 0  -8.291132136730864 52.08612070786916 0  -8.048160055957961 51.81927506036328 0  -8.402484683821461 51.27625104425744 0  -7.805125908751958 51.55245403316571 0  -8.64547427388451 51.54309615877346 0  -9 50.99999999998153 0  -5.782894736408048 38.09434337369543 0  -6.026968007984013 37.82560431843006 0  -5.669300513615529 37.28468234626045 0  -6.271105943269196 37.55689666387016 0  -5.425207388323865 37.55391640994151 0  -5.067183537413502 37.00798365836677 0  -5.778136580163007 34.92702446060947 0  -6.023322278332236 35.1937550962823 0  -5.666926218034256 35.73652135451594 0  -6.268442815809597 35.46051334766229 0  -5.421777152021311 35.47026599708587 0  -5.06553087331055 36.0083025221772 0  -7.909490832299395 50.50423039621059 0  -7.857295061701028 51.02835320536079 0  -8.454810071710405 50.75209220769476 0  -6.164265329938151 36.50862907044927 0  -6.217695478453516 37.03270839279934 0  -5.615743157374161 36.75985509356445 0  -6.216342874643954 35.98451552391735 0  -5.614961061580444 36.25976235460968 0  -6.011343862610769 25.2694485125125 0  -6.132880840635999 24.86510556371696 0  -5.528391966951033 25.14066472660794 0  -8.038855529887543 25.74895345948645 0  -7.917367271158913 26.14729352832991 0  -8.519455712490904 25.8744781433386 0  -6.974498858054042 34.38227227831298 0  -6.621380488622417 34.92144171727691 0  -6.874582428906714 35.24513179382267 0  -7.227711495258609 34.70603394401763 0  -7.480846830116576 35.02978018449765 0  -7.104330715007873 52.63045112451451 0  -7.454637358951661 52.09149890626978 0  -7.203505908543359 51.76794397655606 0  -6.85320860433835 52.30692250320628 0  -6.60200800674227 51.983419150397 0  -6.978516866974786 38.63041317503473 0  -6.624901472340849 38.09370504918151 0  -6.877083487192692 37.76830858244291 0  -7.230689211378984 38.30509265728391 0  -7.482938519796251 37.9797537146553 0  -6.964140335373666 23.38231918448344 0  -6.609209072617621 23.92155148391209 0  -6.863701507513542 24.24528085474544 0  -7.218644130170603 23.70610930813536 0  -7.473071158002575 24.02987495148333 0  -7.892739310894209 17.50409222151613 0  -7.842085434557529 18.02502634030681 0  -8.446433879809012 17.75202230262663 0  -7.841526119850959 16.98351995916208 0  -8.446305487652648 17.25205925286598 0  -7.888182925599105 8.504187790120001 0  -7.837313194747552 9.025220341542759 0  -8.444154000764263 8.752094836799191 0  -7.932547663822283 2.419235240678513 0  -7.8578726382569 2.982567284329331 0  -8.466333112126414 2.709629932544578 0  -7.836765479612278 7.983537490247202 0  -8.444028356546941 8.252090945559036 0  -7.859122891203699 49.9835692877469 0  -8.454680326435449 50.25212865557002 0  -6.082935614732529 41.60157432944586 0  -6.177821294827678 42.07601806805811 0  -5.57
[...]
<PointData  Scalars="f_29"> 
<DataArray  type="Float64"  Name="f_29"  format="ascii">2.6525658466735962e+02  2.5618940608855848e+02  2.5909617282034327e+02  2.5294502684932331e+02  2.6231245208855069e+02  2.5939796076700850e+02  2.6521450510533231e+02  2.5614648155124439e+02  2.5905299898970009e+02  2.5290000929452304e+02  2.6226960580659602e+02  2.5937224988051008e+02  4.0024620427021318e+02  3.9107270625200061e+02  3.9401145051953870e+02  3.8778667340823245e+02  3.9726766484851180e+02  3.9433619988962226e+02  4.0026124566047895e+02  3.9154015359157574e+02  3.9405835538265268e+02  3.8786820001430652e+02  3.9772142205367925e+02  3.9519974464143337e+02  6.6236005137521090e+02  6.7176445441151930e+02  6.6542283575341480e+02  6.6842882693370780e+02  6.6872785642057238e+02  6.7512235045104012e+02  6.7505439400521152e+02  6.6613487630924578e+02  6.6871123994149843e+02  6.6236688009658963e+02  6.7246863506734326e+02  6.6989688544493310e+02  4.8687423298528495e+02  4.9614578484999089e+02  4.8989804339225486e+02  4.9287440384779251e+02  4.9316258911912661e+02  4.9944264464395445e+02  4.9948136092830265e+02  4.9031714318167678e+02  4.9321368052391381e+02  4.8693589577791630e+02  4.9656924160058327e+02  4.9366457763282642e+02  6.8767972994731986e+02  6.9715445489952924e+02  6.9080657492824821e+02  6.9389871736831981e+02  6.9403738312001121e+02  7.0043032625804062e+02  6.8772936167522062e+02  6.9719063437882005e+02  6.9084520541437496e+02  6.9392228892681624e+02  6.9408195503375987e+02  7.0047579424553612e+02  5.2436925983950880e+02  5.2572780040550003e+02  5.2858020474949353e+02  5.3279382901602094e+02  5.2151882081428607e+02  5.1866993166526584e+02  5.9943425253451119e+02  5.9806393976316463e+02  5.9519784909998771e+02  5.9096308540589746e+02  6.0230224179049787e+02  6.0516736401548303e+02  5.6185539301147719e+02  5.6048573952385277e+02  5.5763418857303941e+02  5.5341314338130906e+02  5.6470900089051452e+02  5.6756145650573160e+02  8.3666655384583095e+01  8.2351993911672650e+01  7.9616992838721316e+01  7.5568414220370855e+01  8.6403676129138603e+01  8.9138290714760444e+01  3.6318664640125979e+02  3.6452805518032233e+02  3.6734269941332593e+02  3.7150218984203349e+02  3.6037592864790861e+02  3.5756546698252896e+02  4.7741119190834496e+01  4.9023592101370269e+01  5.1771691153515995e+01  5.5803087809850787e+01  4.4994625211734267e+01  4.2249241554494162e+01  1.1971701070474190e+02  1.2100787176709993e+02  1.2377475345254976e+02  1.2783290277283827e+02  1.1695164807491430e+02  1.1418870082110331e+02  1.5587897338554302e+02  1.5455600993952768e+02  1.5180302627224145e+02  1.4772815314590957e+02  1.5863351523008561e+02  1.6138620506111715e+02  1.9215718016427968e+02  1.9083340292897944e+02  1.8806731347448397e+02  1.8397906259595160e+02  1.9492506435597903e+02  1.9769001348120960e+02  2.2857898942861519e+02  2.2989036763163222e+02  2.3268425499885316e+02  2.3679199323767349e+02  2.2578889135859470e+02  2.2299881303263288e+02  3.2634197483175342e+02  3.2766247408660615e+02  3.3047845975154183e+02  3.3461668346054250e+02  3.2352873469656356e+02  3.2071430942951878e+02  2.2970520915715082e+02  2.2635312971221776e+02  2.1971179853075756e+02  2.2305591502572213e+02  2.1644575084518644e+02  3.2747762232512076e+02  3.2409619990659348e+02  3.1739445495328351e+02  3.2076809137185325e+02  3.1408856684214896e+02  1.9098943036425658e+02  1.9433896297587634e+02  2.0095245814127557e+02  1.9759964353191779e+02  2.0418109392346250e+02  3.6435208936842446e+02  3.6096023900380698e+02  3.5425482697634072e+02  3.5762657103416649e+02  3.5096198521970859e+02  1.5470931116541553e+02  1.5804699782983076e+02  1.6463465476605319e+02  1.6130122505194726e+02  1.6786789585413479e+02  1.2082347740684493e+02  1.1750695938681172e+02  1.1093451667383849e+02  1.1424331501468014e+02  1.0770175295641482e+02  4.8841478037810695e+01  4.5545649419651589e+01  3.9011380490508159e+01  4.2306899101633107e+01  3.5806103121115285e+01  8.2502470571657398e+01  8.5819745641160026e+01  9.2366313067495085e+01  8.9046402634547761e+01  9.5561034186996395e+01  5.6064674411473095e+02  5.6410326334449712e+02  5.7092795070906334e+02  5.6747555664096137e+02  5.7427914045642581e+02  5.9822671287233288e+02  6.0169626265658212e+02  6.0854802415708741e+02  6.0507518101715084e+02  6.1189532151140111e+02  5.2555213186258504e+02  5.2211258521612160e+02  5.1531633033817195e+02  5.1873511783278650e+02  5.1198580636536934e+02  2.8858853898463758e+02  2.9186350183093305e+02  2.9849336864877233e+02  2.9513808350416815e+02  2.9520866993300837e+02  3.0183714452990137e+02  6.3820271525054852e+02  6.3483509520113785e+02  6.2802021017005177e+02  6.3146610373261683e+02  6.3137939653954356e+02  6.2459522948051301e+02  4.6315075224576384e+02  4.5983213164696701e+02  4.5313869781127198e+02  4.5651162681168785e+02  4.5643373269386592e+02  4.4979115623996904e+02  4.2388958263532265e+02  4.2720551320445173e+02  4.3391299948439735e+02  4.3052125858904520e+02  4.3058070847483447e+02  4.3727709966064162e+02  6.1826622336498895e+02  6.2486809751857231e+02  6.2140755063339077e+02  4.4352425209914674e+02  4.5001957821450327e+02  4.4663772270833311e+02  4.3701738437605144e+02  4.4041995631693112e+02  3.0504114018851249e+02  3.0008686121554007e+02  3.0346011271265661e+02  3.1095817780103027e+02  3.1583703598454321e+02  3.1250622608901466e+02  4.1721217500510494e+02  4.2386412567201461e+02  4.2787879067456845e+02  4.2122351133713363e+02  4.2523571874390768e+02  6.4502853471487867e+02  6.3824335105208479e+02  6.3415722059478935e+02  6.4093888454690170e+02  6.3685093343314736e+02  4.6985023152649308e+02  4.6317518089649712e+02  4.5914636877139327e+02  4.6581749766587126e+02  4.6178564053992602e+02  2.8198281640521748e+02  2.8855751968815628e+02  2.9252250434407796e+02  2.8594493678884498e+02  2.8990718341470432e+02  2.1033261482695161e+02  2.1666744443521335e+02  2.1336576777155778e+02  2.0400648034841353e+02  2.0727664843029095e+02  1.0165303392970814e+02  1.0792298755418301e+02  1.0465365464836422e+02  2.8788598871126634e+01  3.5521453356691090e+01  3.2279077193185039e+01  9.5391053595789643e+01  9.8626543224469785e+01  6.1171190922464655e+02  6.1510034366881757e+02  5.0685740253927850e+02  5.1276398475117276e+02  5.0940587485830252e+02  2.9805610918270145e+02  2.9659819919181882e+02  2.9398003787205818e+02  6.2678211912755683e+02  6.2912374752160883e+02  6.3181589619190459e+02  4.5190656797880683e+02  4.5420921749774925e+02  4.5684457120191706e+02  4.3513707234353882e+02  4.3283036699848168e+02  4.3018469351374932e+02  3.4770427328186565e+02  3.5263497293895182e+02  3.4931845147638484e+02  5.3324635237492453e+02  5.2595230221972815e+02  5.3302128498629554e+02  5.9050833913477095e+02  5.9783492343167529e+02  5.9073565240725566e+02  5.5295468826979038e+02  5.6025612734944013e+02  5.5318392814419076e+02  7.5128146133521469e+01  8.2130484086199345e+01  7.5348819399667335e+01  5.6213519705794717e+01  4.9230043646320986e+01  5.6009145959325700e+01  3.7204582268326067e+02  3.6479884340457608e+02  3.7177610519837663e+02  1.2824530262287658e+02  1.2121559095877339e+02  1.2803997753985729e+02  1.4728539966017786e+02  1.5433351488067817e+02  1.4750726122350630e+02  1.8353911390466308e+02  1.9061179808998327e+02  1.8375905267431571e+02  2.3730991789509397e+02  2.3015134769240183e+02  2.3705333544697666e+02  3.3504189677071383e+02  3.2787580418569945e+02  3.3483029555462008e+02  3.1672396448700920e+02  3.1871873812802437e+02  3.2153284961795015e+02  2.1855033402752179e+02  2.2077433312722303e+02  2.2356403755678198e+02  2.0205963974035399e+02  1.9987563396014605e+02  1.9710745760051424e+02  3.5342385449832761e+02  3.5549527369972873e+02  3.5830416041659220e+02  1.6560708547988895e+02  1.6349708699612111e+02  1.6074205706514533e+02  1.0987703553162858e+02  1.1203258807319843e+02  1.1479623368224182e+02  3.9535658056025127e+01  4.0892334018580584e+01  4.3638155393634172e+01  9.3466762610062773e+01  9.1303328238139187e+01  8.8565431853767663e+01  5.1445349354500752e+02  5.1656184149541741e+02  5.1941109557461220e+02  6.0969321980981226e+02  6.0743112822033368e+02  6.0456268021042729e+02  5.7193203281310093e+02  5.6974712866687639e+02  5.6689255127585841e+02  5.0026103062806652e+02  5.0316785477732913e+02  6.8141292246186902e+02  6.7492245771254409e+02  6.7824126184535032e+02  6.8138599245827413e+02  6.7564114686005337e+02  6.7821674746606971e+02  6.8764214275414110e+02  6.8453121805771696e+02  6.8766792461993441e+02  6.8456807856869477e+02  1.6856744498315354e+01  2.4616006732231941e+01  1.8650865318984639e+01  2.0443243567907381e+01  2.2818938683090700e+01  7.2874156337273530e+02  7.2877823961219951e+02  7.3363286053885383e+02  7.2881326472545004e+02  7.3359841036943408e+02  7.3845689944318326e+02  7.2874382400351590e+02  7.2878039545673357e+02  7.3363433239422216e+02  7.3359999448134124e+02  7.3845689944318326e+02  7.0905614844072682e+02  7.0147613297479268e+02  7.0473072280639713e+02  7.0907172773459445e+02  7.0149846874875186e+02  7.0476003806555480e+02  9.2239977195173157e+00  9.2564293884960964e+00  4.6438792824484159e+00  9.2887225409257308e+00  4.6117497913308556e+00  0.0000000000000000e+00  2.6934027454414257e+02  2.6481123845707282e+02  2.7024898827943355e+02  2.6390391794389353e+02  2.6843821323950709e+02  4.0441465213828536e+02  3.9983207065743500e+02  4.0532647400995944e+02  3.9892108479055474e+02  4.0350871084695206e+02  4.8271188191552909e+02  4.8733792982620514e+02  4.8180340443152784e+02  4.8824388543152065e+02  4.8361313491687980e+02  6.5903098037790141e+02  6.6373152614462606e+02  6.6194039671818996e+02  6.5724894243911638e+02  6.5545771395750342e+02  9.1123669543550765e+00  9.2005965564062571e+00  4.6445126521545239e+00  4.5551463313273510e+00  0.0000000000000000e+00  2.4957933603316442e+02  2.5448996828950570e+02  2.5127590700065880e+02  3.8440108451332640e+02  3.8936861939302764e+02  3.8610382666477142e+02  5.0274920275112709e+02  4.9781111857712028e+02  5.0108605244608776e+02  6.7491820813964773e+02  6.8141102885276996e+02  6.8140521439052566e+02  6.8765082217788324e+02  6.8139756692539891e+02  6.8766241806286359e+02  6.7564953072186847e+02  4.9967037093730994e+02  5.0626503439157136e+02  5.0567501562879096e+02  2.5687498588113431e+02  2.5812244326697277e+02  2.6356373979650812e+02  2.5813534066085276e+02  2.6482337090711525e+02  3.9096936412092077e+02  3.9265141777116315e+02  3.9814883305874218e+02  3.9308414048352057e+02  4.0026158121933116e+02  6.6633743472608637e+02  6.6738497053262404e+02  6.6089611011202771e+02  4.9545136306309757e+02  4.9455812666611433e+02  5.0056394178384704e+02  4.8772946114244644e+02  4.8862477517271157e+02  4.9416469255121575e+02  6.9277985224199779e+02  6.9335197399999095e+02  6.8709187658521944e+02  6.9334021569834476e+02  6.9888226399180769e+02  6.9832109318481366e+02  7.0386119886427684e+02  6.6811740139463075e+02  6.7387008779473331e+02  6.9889301493090932e+02  2.7005225247458804e+02  2.6472729777328510e+02  2.7014875521987517e+02  4.0513234553532436e+02  4.0016702908908775e+02  4.0522832410217728e+02  4.8202945332600177e+02  4.8784554182096224e+02  4.8192120387808791e+02  2.1444315649186578e+02  2.0619363099037955e+02  1.0576672453555659e+02  3.4163943790951151e+01  9.7557413131196284e+01  6.1397728403948827e+02  6.6206036732786106e+02  6.5662263347418514e+02  6.5778249407819078e+02  6.6383773774858764e+02  2.1034611301049301e+02  2.0620201952138797e+02  2.1034025088365965e+02  2.1444788153298799e+02  1.0166933937041024e+02  9.7567281602280659e+01  1.0166195864226952e+02  2.9813113593949026e+01  3.4674619903223139e+01  2.9302309057726649e+01  1.0577294102085609e+02  6.1827731377076714e+02  6.1398431180773866e+02  6.1827264397920737e+02  2.4558269175372413e+02  2.5323067157106965e+02  2.5122790224399188e+02  2.4758393972705335e+02  3.8039125281449253e+02  3.8768728574276406e+02  3.8567950365771259e+02  3.8239836769383658e+02  4.9909735324896053e+02  5.0420991512044355e+02  5.1065367381874609e+02  5.1006491904660936e+02  7.2088416218370753e+02  7.1255470618963773e+02  7.1847017547545317e+02  7.1605693634296483e+02  7.1497060024278528e+02  7.2088353152882746e+02  7.1255971850163462e+02  7.1847055213427063e+02  7.1497563807797701e+02  7.0646375393541405e+02  7.0645516891612306e+02  1.7207914489667007e+02  1.6673018123659065e+02  1.6999293025725530e+02  5.7863784340338259e+02  5.7309703472300782e+02  5.7647768948170244e+02  6.2252575529901787e+02  4.3932627834073548e+02  4.4771541068577193e+02  6.2252941088361513e+02  4.4350610469150922e+02  4.3932142259519480e+02  4.4351419752157375e+02  4.4770653954206693e+02  3.0796233788572545e+02  3.1384125195600348e+02  3.1234336174238399e+02  3.0945974696980142e+02  3.6319937412559153e+02  3.5706080897510168e+02  3.6377933472879704e+02  1.9211036702289834e+02  1.9155049132860091e+02  1.9815252682254200e+02  2.2855159203936043e+02  2.2249051143232867e+02  2.2912898771502006e+02  3.2631481529997279e+02  3.2019641932768536e+02  3.2689697872771774e+02  4.7708327070120014e+01  4.1748837934924218e+01  4.8275777564186143e+01  8.3611001162885287e+01  8.3056898410114343e+01  8.9593444606824747e+01  1.1968126266254353e+02  1.1368339452775312e+02  1.2025313610288740e+02  1.5582722770188926e+02  1.5526882846292423e+02  1.6185132150704487e+02  5.6180671896152739e+02  5.6122737137349679e+02  5.6804644393872206e+02  5.9938873445908348e+02  5.9880836852004575e+02  6.0564868661623518e+02  5.2438400820677418e+02  5.1816284809262129e+02  5.2497197597035154e+02  2.5277038784621266e+02  2.4712558305697135e+02  2.4866259323965474e+02  3.8730387996379130e+02  3.8201528568693624e+02  3.8363551114537756e+02  3.4345956076544809e+02  3.3948406280066422e+02  3.4392800965706761e+02  3.3901573597516415e+02  3.4299180315622027e+02  5.4265445836029755e+02  5.3817627298754758e+02  5.4310196200147573e+02  5.3772446720327071e+02  5.4221122985136481e+02  5.4355092830380420e+02  5.4802741830225943e+02  5.4847844140410268e+02  5.4400132339282982e+02  3.5056286357542041e+02  3.4581451562154757e+02  3.4867587162564644e+02  2.5401671384676146e+02  3.8941733937834653e+02  2.5127088405193778e+01  2.6683120262438490e+02  4.0188258897818110e+02  6.6069369427432048e+02  4.8523971447624962e+02  2.5078995762642091e+02  3.8575720233441939e+02  3.0154658998599729e+02  3.0300864440513305e+02  3.0650206941251412e+02  4.1612754890875323e+02  4.2331847803583912e+02  4.1666998291817328e+02  6.4612852653943150e+02  6.3879421452803626e+02  6.4558100636815607e+02  4.7080630567001054e+02  4.6365317032476457e+02  4.7033019831082572e+02  2.8105743339626429e+02  2.8809218729634011e+02  2.8152021147263838e+02  1.3776438454714526e+02  1.4252960687703595e+02  1.3777496170287407e+02  1.4251918621178783e+02  1.3775364802314462e+02  1.3300934700256164e+02  1.3299849015676588e+02  6.5669688822257129e+01  7.0403645429821850e+01  6.5680044105724761e+01  7.0393289695534591e+01  6.5659336357899406e+01  6.0945828310984687e+01  6.0935516815584116e+01  7.0995993828077701e+02  2.8961495170039126e+02  2.8910651239724695e+02  2.9571304069361497e+02  6.3713565650564612e+02  6.3085746154475748e+02  6.3766854035149481e+02  4.6211505198133625e+02  4.5592833681013030e+02  4.6263481103260142e+02  4.2492436355165023e+02  4.2441096523513158e+02  4.3109168139934718e+02  3.5142049872937451e+02  3.4767365122730422e+02  3.4720590650888909e+02  5.5050088801336528e+02  5.4680083953955329e+02  5.4635476149051613e+02  5.3570744669226929e+02  5.3940457019315159e+02  5.3985319902410311e+02  1.7488360063687458e+02  1.6884225135387717e+02  1.7024457525308117e+02  1.7348274549437571e+02  5.8154118269912624e+02  5.7528400462029379e+02  5.7673576364994699e+02  5.8009080701935545e+02  0.0000000000000000e+00  0.0000000000000000e+00  4.6442456250010284e+00  7.3845689944318326e+02  7.3845689944318326e+02  7.3363437672674331e+02  7.3845689944318326e+02  0.0000000000000000e+00  2.6766080982628921e+02  4.0270534619466684e+02  6.6007727757789826e+02  4.8449696147399203e+02  7.2481195001447963e+02  7.2484681716052319e+02  7.2481410888393657e+02  7.2484797364828819e+02  3.6324154275269947e+01  3.0747765956983542e+01  3.6080083889497686e+01  3.5855539230479721e+01  3.0999579054458337e+01  2.5668065108680509e+01  2.7555401683879791e+02  2.7565319888035276e+02  4.1062962915835573e+02  4.1072694700483993e+02  4.7641746715592933e+02  4.7630413366727373e+02  6.5195265986826007e+02  6.5079344055400611e+02  2.4298314725060160e+02  2.4144587219785609e+02  3.7783805266879864e+02  3.7621991451137325e+02  2.3812981008144853e+01  2.4757058468517208e+01  2.9826116988913469e+01  1.3038575855842080e+01  1.3073697779388002e+01  1.7781014691653323e+02  1.7920944279978326e+02  5.8457398402083618e+02  5.8602278823600477e+02  1.6268725326427830e+01  1.2689000696715620e+01  1.2778304917221961e+01  1.7604678967923758e+02  1.8178008161313278e+02  1.8004529729375045e+02  5.8274820353754944e+02  5.8868680676500912e+02  5.8688900395828887e+02  2.7845856444663548e+02  2.7435282168555699e+02  2.7344767995318801e+02  4.1379893489563369e+02  4.0956175575361101e+02  4.0865287582037780e+02  4.7326502822907628e+02  4.7753344576600193e+02  4.7843907742453376e+02  6.4890126321605931e+02  6.5217976273601710e+02  6.5396255474111194e+02  2.4468183003620268e+02  2.3900721588851374e+02  2.4067800739646549e+02  3.7957480083490015e+02  3.7378145299267936e+02  3.7549774573630026e+02  2.3321626287826891e+01  1.7361551957341995e+01  1.7862758034838709e+01  5.8687656742562592e+02  5.8035246599808522e+02  5.7768465198026365e+02  5.7383084379891625e+02  5.8420921489866282e+02  1.0168399572670340e+02  1.0494318035871774e+02  1.0821684324406682e+02  9.8411091732538665e+01  9.5154389420490887e+01  2.1629364551745201e+02  2.1002518560708120e+02  2.0705248040636604e+02  2.0376141023422508e+02  2.1332012233470013e+02  1.3180971624587298e+02  1.3775326544506004e+02  1.4073698887035420e+02  1.4370131092340762e+02  1.3479229985208246e+02  5.9753454368771806e+01  6.5658878926954387e+01  6.8622927379533337e+01  7.1568356393026008e+01  6.2716731225700023e+01  1.8003465449867059e+02  1.7116109413775771e+02  1.7745956317994566e+02  1.7373659850523245e+02  1.6744073619653452e+02  2.3922277104230164e+02  2.4240459269179343e+02  2.4439839689827480e+02  3.7434334608957801e+02  3.7736855832440841e+02  3.7937014302636692e+02  5.1329594089747195e+02  5.0948390641667390e+02  5.0802410592550302e+02  3.0064974574962736e+02  3.0430695923989754e+02  3.0580118529532194e+02  3.3808461276553248e+02  3.4100803223120954e+02  3.4289327553760756e+02  3.0984159744902615e+02  3.1129913964263295e+02  3.1463773346312632e+02  4.3705637102823994e+02  4.4682654306825629e+02  4.4028046995522391e+02  4.4360097710937077e+02  4.5014758009400947e+02  6.2485887073757863e+02  6.1815386657422425e+02  6.1486444507326439e+02  6.1145416011988470e+02  6.2156863093907816e+02  2.3055157431428412e+01  2.7742847847322754e+01  2.3350624666713793e+02  2.3520305999663285e+02  3.3125945139761546e+02  3.3681037774388489e+02  3.3302764902498302e+02  3.3856552571830991e+02  1.2453392713022180e+02  1.2997720852654723e+02  1.2626458622427053e+02  1.3168914374541555e+02  5.2939930551768225e+02  5.3505838170787194e+02  5.3119837941344224e+02  5.3683804165620222e+02  1.5099729475260082e+02  1.4552864702786368e+02  1.4923985964437628e+02  1.4379209955731133e+02  5.9436809940218507e+02  5.9254506386389426e+02  5.5680080676753710e+02  5.5113735763186287e+02  5.5498292748616404e+02  5.4934733135962313e+02  7.8815500667894128e+01  7.3382756684698336e+01  7.7069051859380906e+01  7.1658135217435742e+01  5.2526968491249335e+01  5.7934651491197627e+01  5.4247033185810928e+01  5.9635523610411198e+01  1.8726482241555647e+02  1.8550457263927990e+02  3.6819864361524378e+02  3.6992115315698186e+02  4.1823396515762983e+02  4.1436059783502083e+02  4.1261582977123243e+02  4.2000800210023920e+02  4.6882299079212379e+02  4.7267326915321848e+02  4.7451723038761969e+02  4.6697705852629224e+02  6.4395654907012010e+02  6.4793045504417933e+02  6.4969803961239336e+02  6.4216409045041337e