<?xml version="1.0"?>
<VTKFile type="UnstructuredGrid"  version="0.1"  >
<UnstructuredGrid>
<Piece  NumberOfPoints="2690" NumberOfCells="4864">
<Points>
<DataArray  type="Float64"  NumberOfComponents="3"  format="ascii">-5.015686280619544 22.00342597215772 0  -5.616025685804571 21.2659628364792 0  -5.015369878537341 21.50370824187873 0  -5.015014318323936 21.00345192493107 0  -5.616329052757671 21.76602337690607 0  -6.216990235451782 21.52806577110324 0  -9 21.99999999996945 0  -8.399164871201361 21.26321638619682 0  -9 21.49999999997139 0  -9 20.99999999997333 0  -8.399218877604598 21.76321233579872 0  -7.79838660105584 21.52641582864069 0  -9 32.9999999999446 0  -8.400353837359475 32.26320520653235 0  -9 32.49999999994358 0  -9 31.99999999994255 0  -8.400407902638403 32.76320615727737 0  -7.800764490546527 32.52640435965048 0  -5.023580898501308 33.00370693478828 0  -5.539795457839776 32.30002654230524 0  -5.023248174524512 32.50419786497423 0  -5.022881148480952 32.00359078121729 0  -5.540107141718962 32.80012063485587 0  -6.05665199595733 32.59600330052874 0  -5.038727303665745 54.00354806425846 0  -5.63642981676085 54.7408794057995 0  -5.636131958345715 54.24102624221796 0  -6.233508055318099 54.47798884266629 0  -5.039063471371218 54.50379779078141 0  -5.039387636855114 55.00358046376942 0  -9 54.99999999998974 0  -8.475086977862825 54.29671972136044 0  -9 54.49999999998872 0  -9 53.99999999998769 0  -8.475133444303246 54.79670544842593 0  -7.950229754937361 54.59341539519657 0  -9 39.99999999995897 0  -8.401271483094 40.73819454952431 0  -8.401217433900554 40.23819520284646 0  -7.802486320245493 40.47638043334272 0  -9 40.49999999996 0  -9 40.99999999996102 0  -5.029328465646324 41.00328867348488 0  -5.601107099945787 40.27135537094585 0  -5.028999610450941 40.50381648898186 0  -5.028656996429815 40.00370485297299 0  -5.601411475167327 40.77129929788295 0  -6.173522166022522 40.5387113615542 0  -9 55.99999999999179 0  -8.427567709208212 56.74396953955369 0  -8.427521630166652 56.24396061864622 0  -7.855091568445368 56.48792080243898 0  -9 56.49999999999282 0  -9 56.99999999999384 0  -5.040157222396012 56.00339368444934 0  -5.613061456930653 56.74672249411628 0  -5.612764421745082 56.24670849428647 0  -6.185333386561223 56.48960321262991 0  -5.04051437689368 56.50391122348326 0  -5.040837103409202 57.0035904411298 0  -7.449523853163013 43.0019391574269 0  -6.608216439085817 43.11119851094168 0  -7.21296326871099 43.33960494218586 0  -6.976431456749136 43.67727373227576 0  -6.84474926144765 42.77351178896104 0  -6.239923882989157 42.5450844075 0  -6.583880400997817 49.00365335607552 0  -7.424291823312521 48.89418970831823 0  -6.820158714910504 48.66596157283549 0  -7.056466738506749 48.32825926388495 0  -7.187985668762263 49.23187396386957 0  -7.792040629181544 49.46012085091785 0  -6.582563738802299 46.00343306913079 0  -7.423434027483746 45.89404836811521 0  -6.818972453414336 45.66570250496035 0  -7.055410534217254 45.32798958848431 0  -7.186998154568375 46.23175906463619 0  -7.7913822410151 46.46007199848124 0  -6.56553429836357 7.003561773886138 0  -7.412328736129717 6.894148574878062 0  -6.803610391931672 6.665867829384767 0  -7.041715805858629 6.32817480966738 0  -7.174225562756077 7.231841279046373 0  -7.782866780229552 7.460117878503187 0  -7.445878127032776 30.00191734284282 0  -6.602591760250209 30.11115058433771 0  -7.20876137406021 30.33953122103398 0  -6.971673635307647 30.67713356626808 0  -6.839681054687455 29.77352543714328 0  -6.233432925457917 29.5451518422843 0  -6.564253943853412 4.00339253706866 0  -7.411560224713044 4.110383817193171 0  -6.802716070149067 4.34042775344946 0  -7.041150411630683 4.677451565261375 0  -7.173127683574618 3.773352787061005 0  -7.782044553971979 3.543335709775024 0  -6.566836017520103 10.00359386667281 0  -7.413237956132946 10.1105183469105 0  -6.805048216295561 10.34058398780722 0  -7.043232112609518 10.67757411380406 0  -7.17505215683794 9.773531455531652 0  -7.783318304011777 9.543465171535127 0  -6.568140518287051 13.00362360316831 0  -7.414027280131648 12.89419843263443 0  -6.805960388819844 12.66593083074927 0  -7.043809412080039 12.32823930632643 0  -7.17617992070823 13.23189542613452 0  -7.784169714470413 13.46015675198179 0  -6.569449113797651 16.00367912825093 0  -7.414880747746469 15.89421435844437 0  -6.807140455485782 15.66599033403965 0  -7.044861246294635 15.32829272030117 0  -7.177161835410445 16.23189879482049 0  -7.784824572272629 16.46013926510676 0  -6.570763111960196 19.00329373687759 0  -7.415799859307358 19.11028486183857 0  -6.808593905059967 19.340225801959 0  -7.046395116405983 19.67717853355708 0  -7.177996663654635 18.77332177675578 0  -7.785280805552898 18.54334012751912 0  -6.574257026224159 27.00316994483877 0  -7.418078242599412 27.11020710012419 0  -6.811744635692513 27.34017120781495 0  -7.049203367586284 27.67717734891692 0  -7.180617731079396 26.77318160868409 0  -7.787028526472148 26.54322205874844 0  -8.271619508393837 19.09487135032586 0  -8.028462302978019 18.81910031462107 0  -8.392610684840873 18.27167962420419 0  -8.63577372951762 18.5474506431442 0  -9 17.99999999998495 0  -8.272667135343765 27.09483226442719 0  -8.02985988593948 26.81902757650477 0  -8.39348472591108 26.27160790935894 0  -8.636297769415501 26.54741550950841 0  -9 25.99999999995395 0  -8.271200704609688 15.90719059725561 0  -8.028000538134878 16.18366688241507 0  -8.392441867919711 16.73006180525908 0  -8.635636208075047 16.45358961640754 0  -9 16.99999999998883 0  -5.748456572340019 30.09808892331802 0  -5.990931755636104 29.82161570501643 0  -5.627106116350409 29.27508933896019 0  -5.384621103974595 29.5517231472637 0  -5.020688397829124 29.00341974321327 0  -8.270808249779746 12.90718942980291 0  -8.027476930591964 13.18367236696067 0  -8.392114310631699 13.73007986707445 0  -8.635439845715071 13.45359637530728 0  -9 13.99999999999401 0  -8.270441636763298 10.0949806940923 0  -8.026891941864051 9.819223082126133 0  -8.391629749468814 9.271732007415414 0  -8.635185248698948 9.547489658173125 0  -9 8.99999999999857 0  -8.269672726863597 4.0949170361887 0  -8.025869624471712 3.819129254848217 0  -8.390998336779544 3.271662862418342 0  -8.634804497141978 3.547451378702262 0  -9 2.999999999998668 0  -8.270027562955645 6.907164475773798 0  -8.026435187165729 7.183640492880025 0  -8.391462715565186 7.730059976427381 0  -8.635049221655873 7.453584330674682 0  -9 7.999999999999485 0  -8.275133390411996 45.9071183173421 0  -8.033245727707484 46.18359121504804 0  -8.395720733967973 46.7300421386864 0  -8.637602517773317 46.45356958820232 0  -9 46.99999999997333 0  -8.275527673040074 48.9071772969458 0  -8.033771980498919 49.1836509615744 0  -8.396049985183129 49.73005238283226 0  -8.637799870476519 49.4535836986988 0  -9 49.99999999997949 0  -5.756087721584733 43.09812959126734 0  -5.997992608939881 42.82160489826295 0  -5.635019415571128 42.27497366317388 0  -5.39310533032541 42.55167726771091 0  -5.03002191489308 42.00328282083778 0  -5.74011576685752 23.92055161881957 0  -5.98796203047108 24.18791836147043 0  -5.626799897997625 24.73016586753113 0  -6.235782841504566 24.45529604895736 0  -5.37896740944189 24.46296178133538 0  -5.017882926086152 25.00341173774592 0  -8.280644806029823 52.08463418269974 0  -8.034154591164677 51.81724711084388 0  -8.393790020634418 51.27494415467102 0  -7.787640437858594 51.54986965732246 0  -8.640287027291777 51.54233101112869 0  -9 50.99999999998153 0  -5.748432194518076 38.08785651525839 0  -5.995353964087904 37.81972708547801 0  -5.634412516423179 37.27824530570858 0  -6.242301160322037 37.55161100552035 0  -5.387479975079659 37.546567671882 0  -5.026423413422605 37.00313003533059 0  -5.746572879686471 34.92051763772317 0  -5.993929481716171 35.18786007567684 0  -5.633485511420422 35.73006550429866 0  -6.241260659473414 35.45521321613484 0  -5.386140546631833 35.46290932962598 0  -5.025779599314738 36.00326293373009 0  -7.893874575500014 50.50176365962341 0  -7.840752467285846 51.02582093885997 0  -8.446962316954565 50.750872829752 0  -6.135192272832035 36.50338471568573 0  -6.188750653881996 37.02747635559982 0  -5.580807090600516 36.75386556724913 0  -6.188222400785785 35.97927787325975 0  -5.580503360995506 36.25383158074951 0  -5.990340929389271 25.26368172924695 0  -6.113053991323134 24.85949681416178 0  -5.504116485598871 25.13417211526443 0  -8.031971047577654 25.74704560561851 0  -7.90949099919395 26.14513372986244 0  -8.515996558218367 25.87352334547993 0  -6.954977704927106 34.37839964718385 0  -6.59808381341115 34.91682507137735 0  -6.853566199479117 35.24103741562124 0  -7.210464093123539 34.70263975357733 0  -7.465920295988344 35.0268738528879 0  -7.07597506934167 52.62658730025652 0  -7.431772859961921 52.08824647128039 0  -7.177101397172905 51.76408706737823 0  -6.821307316415703 52.30243798206684 0  -6.566609400607662 51.97829868502669 0  -6.956548200758276 38.62657303943936 0  -6.599459863541798 38.08911159193495 0  -6.854543613524595 37.7642309283526 0  -7.211627935761998 38.30172172632749 0  -7.466737814156835 37.97686340436897 0  -6.950919573280363 23.37841841660327 0  -6.593316088049901 23.91686855747683 0  -6.849304653554998 24.24109615234009 0  -7.206912250077201 23.70266963744391 0  -7.462874868675385 24.02691125655002 0  -7.887410651305 17.5016047241254 0  -7.836340822718403 18.02247749832333 0  -8.443730393755406 17.7507929878686 0  -7.836122392990698 16.9808738686978 0  -8.44368026240779 17.25080751629321 0  -7.885615804319668 8.501642786465316 0  -7.834462291510776 9.022554296111752 0  -8.442832687022895 8.750821771056318 0  -7.931760708537373 2.417023201148786 0  -7.856892388258018 2.980175085624944 0  -8.465903958774934 2.70851646694427 0  -7.834246019897556 7.980881232387934 0  -8.442783072191736 8.250820234363641 0  -7.842962490109039 49.98094428255132 0  -8.446912103111105 50.25088703393834 0  -6.048724330949773 41.5964236540792 0  -6.144331539924833 42.07076813764041 0  -5.539371672
[...]
<PointData  Scalars="f_29"> 
<DataArray  type="Float64"  Name="f_29"  format="ascii">2.5567140803686917e+02  2.4698727548476495e+02  2.4977310658673727e+02  2.4388204405758739e+02  2.5284930060364229e+02  2.5006440626518764e+02  2.5566417858815277e+02  2.4697638010013941e+02  2.4976478540774207e+02  2.4387347312646523e+02  2.5283785920023587e+02  2.5005790293344182e+02  3.8443945716105611e+02  3.7571148682050386e+02  3.7851094909250219e+02  3.7259165719161064e+02  3.8160062861033776e+02  3.7880830305973075e+02  3.8442347184895061e+02  3.7613096291969538e+02  3.7852700728611649e+02  3.7263883584155786e+02  3.8200637404553447e+02  3.7961286225002505e+02  6.3184972510459943e+02  6.4066934594291104e+02  6.3472244483961424e+02  6.3754555468445301e+02  6.3782222360894036e+02  6.4381782692750426e+02  6.4378139217878004e+02  6.3541600341781043e+02  6.3783550127908302e+02  6.3188767226480377e+02  6.4135250287143856e+02  6.3893735954091164e+02  4.6657559750065099e+02  4.7534186755403653e+02  4.6943184159274324e+02  4.7224144481317211e+02  4.7252534593821946e+02  4.7846642583411381e+02  4.7847010003671494e+02  4.6980330074399990e+02  4.7254365651089603e+02  4.6660622283018955e+02  4.7571464329500697e+02  4.7297249755661716e+02  6.5560879724400161e+02  6.6447946086074626e+02  6.5853378067272638e+02  6.6142477253965251e+02  6.6156375767650752e+02  6.6755287302248360e+02  6.5563043159431095e+02  6.6449368904201151e+02  6.5854937281646573e+02  6.6143434704720005e+02  6.6158190198458226e+02  6.6757072088224027e+02  5.0200988444891493e+02  5.0328832948287135e+02  5.0598483706000127e+02  5.0996114571116550e+02  4.9931357306527286e+02  4.9661937442978797e+02  5.7276825841493508e+02  5.7148637755245784e+02  5.6878444530799209e+02  5.6480130648277463e+02  5.7547091948039395e+02  5.7817108058115741e+02  5.3737692569097578e+02  5.3609213819831837e+02  5.3339779187042029e+02  5.2941842800033157e+02  5.4007171136533623e+02  5.4276587774553207e+02  8.1051525686285757e+01  7.9788606965021785e+01  7.7138846635273808e+01  7.3226647776906745e+01  8.3702170021530506e+01  8.6350828842740086e+01  3.4917417792133080e+02  3.5044677130748755e+02  3.5312870343430507e+02  3.5708534730616844e+02  3.4649426351727868e+02  3.4381433068106207e+02  4.6292910752820283e+01  4.7541044078019198e+01  5.0197669018162919e+01  5.4102797600104253e+01  4.3636420060808462e+01  4.0981506365799696e+01  1.1585909197135673e+02  1.1711280794149542e+02  1.1977477443929905e+02  1.2369047111733170e+02  1.1319759145193757e+02  1.1053846359542092e+02  1.5070717903907743e+02  1.4944209739224689e+02  1.4678490750469905e+02  1.4286312360388132e+02  1.5336491485166860e+02  1.5602110204175582e+02  1.8560007662180755e+02  1.8433601249759667e+02  1.8167241061829395e+02  1.7774543406557714e+02  1.8826433137725104e+02  1.9092599546146928e+02  2.2055463093632272e+02  2.2181745680022573e+02  2.2449033582640226e+02  2.2842766659145096e+02  2.1788373161322033e+02  2.1521373303075367e+02  3.1405712536329446e+02  3.1532166483482649e+02  3.1800323843459722e+02  3.2195050768770261e+02  3.1137628111447617e+02  3.0869518240551940e+02  2.2164786473292776e+02  2.1843196774559391e+02  2.1206787639643599e+02  2.1527718720212727e+02  2.0894256288563898e+02  3.1515257146823984e+02  3.1192417518710067e+02  3.0553249082706583e+02  3.0875443354672967e+02  3.0238345052842391e+02  1.8449487354397948e+02  1.8770975766547363e+02  1.9406546902736955e+02  1.9084839981532031e+02  1.9717102015526231e+02  3.5027885248859496e+02  3.4704759524319985e+02  3.4065535356683858e+02  3.4387555301683545e+02  3.3751213344556186e+02  1.4959957077905739e+02  1.5280967025532848e+02  1.5915444232172888e+02  1.5594943485331979e+02  1.6227256656817002e+02  1.1694480806721944e+02  1.1374252712981107e+02  1.0740546604785320e+02  1.1060118599911048e+02  1.0429300716968719e+02  4.7372741819793795e+01  4.4177436617900518e+01  3.7849929801744885e+01  4.1045946473332080e+01  3.4749577732558656e+01  7.9943200838201832e+01  8.3146484614985667e+01  8.9476498073761292e+01  8.6271586948674610e+01  9.2568915827495331e+01  5.3625247931127547e+02  5.3950842304747300e+02  5.4594458879118872e+02  5.4269376417796173e+02  5.4910810164546808e+02  5.7164783368297333e+02  5.7490877510528901e+02  5.8135601864190983e+02  5.7809286924881405e+02  5.8450720372608248e+02  5.0312216441520803e+02  4.9987198921596877e+02  4.9344647080521986e+02  4.9668496567948415e+02  4.9029363712272084e+02  2.7800221626836651e+02  2.8113102009375928e+02  2.8745895984387170e+02  2.8425994153882920e+02  2.8432997517998183e+02  2.9064496632440495e+02  6.0921404304038617e+02  6.0605004881878108e+02  5.9965513104214938e+02  6.0288451044381679e+02  6.0281203176405404e+02  5.9644642464471519e+02  4.4410387067275235e+02  4.4095837782310019e+02  4.3460937841284675e+02  4.3781137630701244e+02  4.3774187279649402e+02  4.3142994295719433e+02  4.0687585508494413e+02  4.1002135665132420e+02  4.1637846193884621e+02  4.1316700008086895e+02  4.1322617919160280e+02  4.1955904635203660e+02  5.9048606918047517e+02  5.9668784814459525e+02  5.9344278861115311e+02  4.2549182192861383e+02  4.3165418971676047e+02  4.2843831459499529e+02  4.1932525509635246e+02  4.2254444637158628e+02  2.9371300585921944e+02  2.8898450213689847e+02  2.9219766651222017e+02  2.9938433402619381e+02  3.0404094361028694e+02  3.0086679784688221e+02  4.0053945153107816e+02  4.0685302344474127e+02  4.1066387395485521e+02  4.0434917657827094e+02  4.0815919168057445e+02  6.1561008001866242e+02  6.0924433303730723e+02  6.0540609270100265e+02  6.1176985460490084e+02  6.0793031544708253e+02  4.5045054363516147e+02  4.4412773260464485e+02  4.4031173703255524e+02  4.4663284712000143e+02  4.4281546838341700e+02  2.7168913234199658e+02  2.7797399915946403e+02  2.8176478796952750e+02  2.7547922716237133e+02  2.7926885626785236e+02  2.0306454081788095e+02  2.0914155829193410e+02  2.0598005994209586e+02  1.9699129982754667e+02  2.0013700797097243e+02  9.8440237838375936e+01  1.0449205387533797e+02  1.0134285981339576e+02  2.7935474789961575e+01  3.4461786337147039e+01  3.1324615867746100e+01  9.2391732014950492e+01  9.5523620602938891e+01  5.8432456745956392e+02  5.8751583314813627e+02  4.8544832404441092e+02  4.9103528715987994e+02  4.8785377910789884e+02  2.8705248886743044e+02  2.8565689048945580e+02  2.8315974033494030e+02  5.9847861260231866e+02  6.0068117694912939e+02  6.0320414634858537e+02  4.3345005653849012e+02  4.3563040035617752e+02  4.3813221560377156e+02  4.1754918964169747e+02  4.1535885016234170e+02  4.1285347900591557e+02  3.3441304440065937e+02  3.3911462767373661e+02  3.3594622530370935e+02  5.1038267337659676e+02  5.0349899154915681e+02  5.1017262564444724e+02  5.6438068107053618e+02  5.7127454362292053e+02  5.6459050800450518e+02  5.2899402978302203e+02  5.3587937193349796e+02  5.2920583122427888e+02  7.2809008694761189e+01  7.9578534060903493e+01  7.3017909229334435e+01  5.4507431653007266e+01  4.7744495064684109e+01  5.4305471434035361e+01  3.5759785797473347e+02  3.5070317823549169e+02  3.5734324947126134e+02  1.2409718851012504e+02  1.1731759339921346e+02  1.2389428696342300e+02  1.4244564237198225e+02  1.4923230747783006e+02  1.4265441923732334e+02  1.7733060556352123e+02  1.8412702676139634e+02  1.7753755565596268e+02  2.2893105447383510e+02  2.2207097365084897e+02  2.2868120246210415e+02  3.2236259576937130e+02  3.1552822308434605e+02  3.2215709393878211e+02  3.0488074778875529e+02  3.0678754571156958e+02  3.0946942698072058e+02  2.1094110588164617e+02  2.1307709051125670e+02  2.1574776144093138e+02  1.9511473085007012e+02  1.9302095343071670e+02  1.9035692080615758e+02  3.3987313159664501e+02  3.4184378471234805e+02  3.4452340060176044e+02  1.6007531942146460e+02  1.5804853458622264e+02  1.5539080576028888e+02  1.0637011303490543e+02  1.0845378882884683e+02  1.1111449869809159e+02  3.8345683707709199e+01  3.9663183330884593e+01  4.2319534479623812e+01  9.0525239064830828e+01  8.8438641636433246e+01  8.5787694304259134e+01  4.9263751518152054e+02  4.9462816256137398e+02  4.9732427130018453e+02  5.8241980334987215e+02  5.8029605859204321e+02  5.7759346885493687e+02  5.4687835240008963e+02  5.4482238687474637e+02  5.4212713760769861e+02  4.7921000922853267e+02  4.8195789498354674e+02  6.4971708842322357e+02  6.4363253918927035e+02  6.4674489768593867e+02  6.4970531248114730e+02  6.4432126120027715e+02  6.4674005979233948e+02  6.5556513258443692e+02  6.5265507081843816e+02  6.5557587503724517e+02  6.5266970841641478e+02  1.6361123471225206e+01  2.3885882650172256e+01  1.8099622010708014e+01  1.9836981147889162e+01  2.2145181284195306e+01  6.9403247325260361e+02  6.9406528625280532e+02  6.9860240585599377e+02  6.9409695207882692e+02  6.9857107080365574e+02  7.0311030371734785e+02  6.9403352217194606e+02  6.9406632403830088e+02  6.9860327992950738e+02  6.9857188499326321e+02  7.0311030371734785e+02  6.7561855257444495e+02  6.6852140524246136e+02  6.7157343774156845e+02  6.7562440834814208e+02  6.6853031853493508e+02  6.7158477290187443e+02  8.9560070693090204e+00  8.9853139956316763e+00  4.5079899384750632e+00  9.0157006493599656e+00  4.4779621662856544e+00  0.0000000000000000e+00  2.5959749180463496e+02  2.5526026936002901e+02  2.6046152281896161e+02  2.5439809857347115e+02  2.5874020068306942e+02  3.8838616826268515e+02  3.8402881237409866e+02  3.8924751885554940e+02  3.8316851682039430e+02  3.8753074619226823e+02  4.6262663342288698e+02  4.6700101603137966e+02  4.6176233543818904e+02  4.6786329792971503e+02  4.6348419495277932e+02  6.2873491282695602e+02  6.3314099521092407e+02  6.3146728966084072e+02  6.2706800591398496e+02  6.2539243013724194e+02  8.8465845299118655e+00  8.9306195306457976e+00  4.5085305314175796e+00  4.4228664745970709e+00  0.0000000000000000e+00  2.4066278807745275e+02  2.4536436408794253e+02  2.4228352228129060e+02  3.6936358162416121e+02  3.7408620847232856e+02  3.7098731781324472e+02  4.8158250295794949e+02  4.7691152914651093e+02  4.8001468118667430e+02  6.4363212184898566e+02  6.4971644363164614e+02  6.4971439402068347e+02  6.5556906960180936e+02  6.4971118072762079e+02  6.5557383866682358e+02  6.4432460477012137e+02  4.7865623298612053e+02  4.8489199211186718e+02  4.8433867113153877e+02  2.4765787084831177e+02  2.4885658572335126e+02  2.5406156392505883e+02  2.4885989340543452e+02  2.5526361932182795e+02  3.7559930419998636e+02  3.7720225265969066e+02  3.8242476180173611e+02  3.7760528416665613e+02  3.8442936309692919e+02  6.3559371488045883e+02  6.3657120945809197e+02  6.3049187277177737e+02  4.7467068886746114e+02  4.7382150366457137e+02  4.7950535528002644e+02  4.6736405598879259e+02  4.6821434334063434e+02  4.7345767973475790e+02  6.6037027048447464e+02  6.6090296940068674e+02  6.5504201135509243e+02  6.6089815118410149e+02  6.6608885855610799e+02  6.6556009833524945e+02  6.7074850715181583e+02  6.3726555025673645e+02  6.4265331311581247e+02  6.6609320632574168e+02  2.6026570849982147e+02  2.5516622371174785e+02  2.6036094182087459e+02  3.8905573583406760e+02  3.8433487085651672e+02  3.8914989274467212e+02  4.6196949975053701e+02  4.6746905443038747e+02  4.6186968208001616e+02  2.0700466173605690e+02  1.9908761204810645e+02  1.0240711176611350e+02  3.3142900044254077e+01  9.4480593532297533e+01  5.8645090720652888e+02  6.3158793627714283e+02  6.2648841521495046e+02  6.2758066312864423e+02  6.3325756486861735e+02  2.0306875685441173e+02  1.9909120662732656e+02  2.0306715914359688e+02  2.0700488267373038e+02  9.8446667883794305e+01  9.4485490172887012e+01  9.8443815210983615e+01  2.8921681063237113e+01  3.3634037556978505e+01  2.8429623543000329e+01  1.0240845370350659e+02  5.9048785467681410e+02  5.8645324267440992e+02  5.9048746304922349e+02  2.3684610937686736e+02  2.4416301014125474e+02  2.4225096069241181e+02  2.3875690332896542e+02  3.6554090229744969e+02  3.7248367381245447e+02  3.7056937951227474e+02  3.6745422901666240e+02  4.7812397607136018e+02  4.8295832198801776e+02  4.8904201427279622e+02  4.8848888886312955e+02  6.8668347342121990e+02  6.7889003835701851e+02  6.8442428323484251e+02  6.8216572887136124e+02  6.8115207969438495e+02  6.8668306282700951e+02  6.7889187795890007e+02  6.8442435284639396e+02  6.8115372252828240e+02  6.7318346740440313e+02  6.7318009069668187e+02  1.6631230900904470e+02  1.6116481702547327e+02  1.6431099346502862e+02  5.5320466349451340e+02  5.4798338322058657e+02  5.5117482833047131e+02  5.9448414486351169e+02  4.2151756696219809e+02  4.2947226243212361e+02  5.9448318182328001e+02  4.2548534730461893e+02  4.2151706920629397e+02  4.2548825869309474e+02  4.2946788972621255e+02  2.9651400021353061e+02  3.0213270572896471e+02  3.0069766320561871e+02  2.9794870757185788e+02  3.4917944875645730e+02  3.4333580919281968e+02  3.4973028549490152e+02  1.8558001621808714e+02  1.8503760430725180e+02  1.9138302072396979e+02  2.2054953194617087e+02  2.1473885837937806e+02  2.2109886431196728e+02  3.1405026223103880e+02  3.0821246258933149e+02  3.1460174320852485e+02  4.6282850218017465e+01  4.0508825822915320e+01  4.6828254331666102e+01  8.1022933017242465e+01  8.0482853173960947e+01  8.6803926868546199e+01  1.1585163196591019e+02  1.1006499662454679e+02  1.1639864091977232e+02  1.5068450213899564e+02  1.5014225274815155e+02  1.5648274508915108e+02  5.3735394996543425e+02  5.3680346995233197e+02  5.4323510506960076e+02  5.7274879407499486e+02  5.7219848758482419e+02  5.7863543307537509e+02  5.0201779153797582e+02  4.9614341898781061e+02  5.0257148018340769e+02  2.4373373785827900e+02  2.3832846147519294e+02  2.3980600687312571e+02  3.7210936836104804e+02  3.6708049686324017e+02  3.6861714058996137e+02  3.3038513957596450e+02  3.2659393407158029e+02  3.3082598191618001e+02  3.2615292020603886e+02  3.2994491216994680e+02  5.1926018968312951e+02  5.1503720797078870e+02  5.1968936638008597e+02  5.1460515096818801e+02  5.1883217885127908e+02  5.2011924458690623e+02  5.2434116913408877e+02  5.2477287625186773e+02  5.2055033961973174e+02  3.3714271247444458e+02  3.3261842600697048e+02  3.3534957283662322e+02  2.4493145551911829e+02  3.7411470185253773e+02  2.4378533777653285e+01  2.5720667492224680e+02  3.8598981089418311e+02  6.3028952145733354e+02  4.6502564984852557e+02  2.4184823152618083e+02  3.7063090329166158e+02  2.9038190335809531e+02  2.9178279778551075e+02  2.9511405183621554e+02  3.9950557648843017e+02  4.0633399298211737e+02  4.0002206942636440e+02  6.1664829073112651e+02  6.0976480571728803e+02  6.1613104331212435e+02  4.5135208590235305e+02  4.4457953845018818e+02  4.5090262804137132e+02  2.7080024716688433e+02  2.7752794309989793e+02  2.7124414379468806e+02  1.3327092866624875e+02  1.3786003442606651e+02  1.3327472848950566e+02  1.3785641473052976e+02  1.3326705607153872e+02  1.2868555294510375e+02  1.2868155202925743e+02  6.3658081112750118e+01  6.8235679020952162e+01  6.3662517357616657e+01  6.8231403713258203e+01  6.3653776746182388e+01  5.9084555293081849e+01  5.9080106152536551e+01  6.7645870181011730e+02  2.7898219196327057e+02  2.7849494578190775e+02  2.8481043785805946e+02  6.0821962228340431e+02  6.0232596439213341e+02  6.0871581473432752e+02  4.4312152844264307e+02  4.3726192226474967e+02  4.4361268348380952e+02  4.0785673806831574e+02  4.0736832325596237e+02  4.1370909577117527e+02  3.3797262978558194e+02  3.3439906111855083e+02  3.3395883433932039e+02  5.2666207691250099e+02  5.2317495398048197e+02  5.2274726344121075e+02  5.1271940519141492e+02  5.1620467413719575e+02  5.1663390273023208e+02  1.6899940400244529e+02  1.6319316961273901e+02  1.6453693017244532e+02  1.6765673508809647e+02  5.5593015586105946e+02  5.5004074531082870e+02  5.5140382779769675e+02  5.5456821729498938e+02  0.0000000000000000e+00  0.0000000000000000e+00  4.5079612182294033e+00  7.0311030371734785e+02  7.0311030371734785e+02  6.9860328490223253e+02  7.0311030371734785e+02  0.0000000000000000e+00  2.5797326470898008e+02  3.8674618842574961e+02  6.2973652513956063e+02  4.6430024840687480e+02  6.9035810349870337e+02  6.9038880753290732e+02  6.9035904989811638e+02  6.9038945515683679e+02  3.5226170681887488e+01  2.9816044478277746e+01  3.4984989852502792e+01  3.4764441257793017e+01  3.0063840829685560e+01  2.4897111031641138e+01  2.6553264054440064e+02  2.6563084928742245e+02  3.9428061047618388e+02  3.9437655701242755e+02  4.5666067244469252e+02  4.5655670149278382e+02  6.2211219677813278e+02  6.2102113971228903e+02  2.3436581970851168e+02  2.3288869382159550e+02  3.6310503527925482e+02  3.6157034187836626e+02  2.3102398215804111e+01  2.4012212246544205e+01  2.8927518467022640e+01  1.2657264500322079e+01  1.2689193593704765e+01  1.7182303526945634e+02  1.7316370068642809e+02  5.5879422922463834e+02  5.6015402991623557e+02  1.5787715266807279e+01  1.2316153197756563e+01  1.2401703223447209e+01  1.7013438587085452e+02  1.7564584369832556e+02  1.7398521497038854e+02  5.5708153849405892e+02  5.6267188085587179e+02  5.6098707010407873e+02  2.6832471830695067e+02  2.6439276032868872e+02  2.6353199421552580e+02  3.9730398959565929e+02  3.9327534131222762e+02  3.9241673382722882e+02  4.5368877252740901e+02  4.5772533651646211e+02  4.5858673578055618e+02  6.1923745611296727e+02  6.2231530887281770e+02  6.2398441584135253e+02  2.3599911877544287e+02  2.3056254895941944e+02  2.3216824045650657e+02  3.6475360742685223e+02  3.5924424827306393e+02  3.6086973378303617e+02  2.2635415925438419e+01  1.6852810421959852e+01  1.7341869950931187e+01  5.6094818923668197e+02  5.5480295321963069e+02  5.5229385226987029e+02  5.4865907647847064e+02  5.5843943046181300e+02  9.8452253731856473e+01  1.0160320271945884e+02  1.0475928138695990e+02  9.5296097067370496e+01  9.2146509550464103e+01  2.0876897263113284e+02  2.0275286101354899e+02  1.9990340493058181e+02  1.9673938155801824e+02  2.0591915436230724e+02  1.2751641640011698e+02  1.3324539574402314e+02  1.3612486684553576e+02  1.3897608560609814e+02  1.3039563316031135e+02  5.7920066477129652e+01  6.3634563877204350e+01  6.6506027270651145e+01  6.9350676393615473e+01  6.0791347417513350e+01  1.7394646795142685e+02  1.6541406312994545e+02  1.7147319734101504e+02  1.6788756705551711e+02  1.6182972661423136e+02  2.3074908154854143e+02  2.3379913173763123e+02  2.3570378162348422e+02  3.5979530021362768e+02  3.6266941674375914e+02  3.6457765227871784e+02  4.9155084536392098e+02  4.8794347726851362e+02  4.8656839307772151e+02  2.8953728724352425e+02  2.9302670119813456e+02  2.9445846202468607e+02  3.2524765448700356e+02  3.2803852574106122e+02  3.2982905192034076e+02  2.9829851758046846e+02  2.9969624466176737e+02  3.0288092276097700e+02  4.1937781398922203e+02  4.2863821413008912e+02  4.2243094608170662e+02  4.2558391965597428e+02  4.3179054131648132e+02  5.9666350459795410e+02  5.9036370120834283e+02  5.8727661002540890e+02  5.8406664187276874e+02  5.9357618337157817e+02  2.2367492990561104e+01  2.6911146753494510e+01  2.2528833333676357e+02  2.2691996148049188e+02  3.1875745966084463e+02  3.2405394123175114e+02  3.2044913737875169e+02  3.2573210662656481e+02  1.2052067428190286e+02  1.2577360293482030e+02  1.2219641980843102e+02  1.2743027662086558e+02  5.0675220868329728e+02  5.1208897884800604e+02  5.0845327153702772e+02  5.1376673505870815e+02  1.4602266113418835e+02  1.4076018931498959e+02  1.4433716812182743e+02  1.3909433243154061e+02  5.6801488113599964e+02  5.6630573143275922e+02  5.3262349377290354e+02  5.2728592232968185e+02  5.3091544990931584e+02  5.2560469737491314e+02  7.6376392480684189e+01  7.1127218848805342e+01  7.4694313450006561e+01  6.9465669510069219e+01  5.0939710945538692e+01  5.6179476582879644e+01  5.2611388268180406e+01  5.7831917284094416e+01  1.8091337344624466e+02  1.7922832474744402e+02  3.5393780350550077e+02  3.5557924960872305e+02  4.0150875496269776e+02  3.9782179360774535e+02  3.9616027425016972e+02  4.0319085103818009e+02  4.4947649610376061e+02  4.5311401767998490e+02  4.5485374811094078e+02  4.4772714383448056e+02  6.1461680516434433e+02  6.1834360355000331e+02  6.2000548357833043e+02  6.1292989649621938e