<?xml version="1.0"?>
<VTKFile type="UnstructuredGrid"  version="0.1"  >
<UnstructuredGrid>
<Piece  NumberOfPoints="2690" NumberOfCells="4864">
<Points>
<DataArray  type="Float64"  NumberOfComponents="3"  format="ascii">-5.091827925580152 22.02005428696569 0  -5.678707186578221 21.28273075495208 0  -5.090035389164379 21.52169327623303 0  -5.087866751465326 21.02013459276819 0  -5.680541444012734 21.78310578500074 0  -6.269198908293323 21.54292415929542 0  -9 21.99999999996945 0  -8.410284709556478 21.26669085491457 0  -9 21.49999999997139 0  -9 20.99999999997333 0  -8.410609821595278 21.76666764896603 0  -7.820915339087685 21.53328207114206 0  -9 32.9999999999446 0  -8.417379211184766 32.26662484817211 0  -9 32.49999999994358 0  -9 31.99999999994255 0  -8.417703686126444 32.76663133930693 0  -7.835100746669272 32.53321411384844 0  -5.138877816478317 33.02166053809432 0  -5.638116690041415 32.31779599321332 0  -5.137015787506066 32.52454787840951 0  -5.134674820704169 32.02095772708926 0  -5.640021150925894 32.81835550156588 0  -6.141104319851749 32.61193357271369 0  -5.230519971583639 54.02061399214046 0  -5.801546213123173 54.75714804582264 0  -5.799731486289679 54.25801428173269 0  -6.368617446721208 54.49239263019832 0  -5.232691327252939 54.52217305942246 0  -5.234532802891271 55.02080269045521 0  -9 54.99999999998974 0  -8.500614384876251 54.29964573394121 0  -9 54.49999999998872 0  -9 53.99999999998769 0  -8.500904236234003 54.7995577283035 0  -8.001579652044743 54.5991442826316 0  -9 39.99999999995897 0  -8.422892374052406 40.74155612161822 0  -8.422567692396992 40.24156108454688 0  -7.845446119928692 40.48306084687292 0  -9 40.49999999996 0  -9 40.99999999996102 0  -5.173381497200312 41.01912128574978 0  -5.722391556572173 40.28842708031549 0  -5.171531416617907 40.52225327041661 0  -5.169383044125553 40.02154863661308 0  -5.724226690139189 40.78810319669888 0  -6.27507837006431 40.55356485473749 0  -9 55.99999999999179 0  -8.456661849455928 56.74707761173377 0  -8.456376031432372 56.24702164978586 0  -7.913051146302717 56.49404327124849 0  -9 56.49999999999282 0  -9 56.99999999999384 0  -5.239317350076528 56.01966203255405 0  -5.785647941301691 56.76307372572708 0  -5.783869714223309 56.26298738426541 0  -6.328029508648411 56.50381865465703 0  -5.241623008764013 56.52283732903226 0  -5.243460285457939 57.02087537046652 0  -7.50870432237033 43.01136291948491 0  -6.699773240909663 43.12592566953779 0  -7.281715131659842 43.35062991145659 0  -7.054891165379217 43.6899114059308 0  -6.92658941350096 42.78653302774986 0  -6.344190541902351 42.56171259033551 0  -6.689148951207903 49.02148731461881 0  -7.492781620778359 48.90571558556494 0  -6.914424590936378 48.68207039719569 0  -7.139898565906756 48.34258676403105 0  -7.267327719915992 49.24509128013398 0  -7.845193209955455 49.4688484012652 0  -6.681283690503054 46.02017661700465 0  -7.487653901852927 45.90486396543636 0  -6.907367008344893 45.68051727144235 0  -7.133632646106224 45.34096225303447 0  -7.261399346707471 46.24440246130882 0  -7.841225869129322 46.46855330212042 0  -6.579887847488848 7.020862274661605 0  -7.421531508532277 6.905409908028307 0  -6.815900562817691 6.681433876699746 0  -7.052096774229549 6.342009905417763 0  -7.185346643637489 7.244829722421076 0  -7.790518309681279 7.468783301386293 0  -7.486825012685101 30.01123545783034 0  -6.666013404139892 30.12563846429932 0  -7.256508447013729 30.35019156807118 0  -7.026363709875129 30.68907640572945 0  -6.896159141213321 29.7866145824715 0  -6.305198575060217 29.56210819319184 0  -6.572512534698038 4.019855236563378 0  -7.417104494190554 4.121126433225538 0  -6.810747547905239 4.355424688300035 0  -7.048838751259324 4.690929564655153 0  -7.179023131595105 3.785582170994755 0  -7.785781071947838 3.551437936585589 0  -6.587474565745026 10.02103557082987 0  -7.426826551204248 10.12191592711412 0  -6.824276387202421 10.35634259864485 0  -7.060925387772959 10.69165105550083 0  -7.190162224564633 9.786629121975823 0  -7.793148117150028 9.552196492921102 0  -6.595082675730999 13.02122936755409 0  -7.431427020801643 12.90570531283471 0  -6.829596131598222 12.68180791205802 0  -7.064291906054916 12.34239259536281 0  -7.196734433570489 13.2451504136568 0  -7.798108445217291 13.46901360926445 0  -6.602746656905806 16.02155360971875 0  -7.436439931717082 15.90580183245221 0  -6.836507265235303 15.6821565975903 0  -7.070456311192411 15.34270669632119 0  -7.202508155598977 16.24517399983267 0  -7.801970018915336 16.46891558851718 0  -6.610685570836067 19.01930741078347 0  -7.441989790045588 19.12056115930887 0  -6.845303062925924 19.35426318526405 0  -7.079731096713689 19.68934142552761 0  -7.2075439579512 18.78541903192345 0  -7.804721434143952 18.55147549720662 0  -6.63154871172035 27.01858761335929 0  -7.455599230636628 27.12011127364355 0  -6.864083822596077 27.35395239026252 0  -7.096456140758821 27.68934676190128 0  -7.22322588897749 26.78460142224147 0  -7.815190269169963 26.55078477216774 0  -8.283648905243917 19.09958827407612 0  -8.044259450308076 18.82550003446146 0  -8.402179415803305 18.27579411501633 0  -8.641604187473773 18.54988269635541 0  -9 17.99999999998495 0  -8.289910029005135 27.09936169658512 0  -8.052620952238653 26.82507585547581 0  -8.407420520279329 26.27537360166096 0  -8.644743082422098 26.54967695877277 0  -9 25.99999999995395 0  -8.281122079170503 15.91249413910046 0  -8.041473471071722 16.19071630585643 0  -8.401161351750348 16.73441265265462 0  -8.640774643907775 16.45621423718122 0  -9 16.99999999998883 0  -5.834491735280839 30.1184579891869 0  -6.069768673395942 29.84026191633872 0  -5.713782589858216 29.29584290441387 0  -5.478501130691876 29.57498748445983 0  -5.121458107039826 29.02005748637574 0  -8.278813561512475 12.9124848118463 0  -8.038390065202755 13.19074501438053 0  -8.399224808329068 13.7345155805795 0  -8.639615857546259 13.45625215525176 0  -9 13.99999999999401 0  -8.276677334134659 10.10022334248763 0  -8.034981582946655 9.826210704944184 0  -8.396401716146476 9.276095033701337 0  -8.638132520246014 9.550107709037958 0  -9 8.99999999999857 0  -8.272222644046268 4.099849547047524 0  -8.029063621993767 3.825660370358409 0  -8.392752797803663 3.275689901543829 0  -8.635930373261527 3.549883223434592 0  -9 2.999999999998668 0  -8.274266799999651 6.912337009739582 0  -8.032321932216108 7.190556189349507 0  -8.395428977410342 7.734397528790318 0  -8.637340460805891 7.4561807300043 0  -9 7.999999999999485 0  -8.304667581519102 45.912085336341 0  -8.072875107393395 46.19029557999372 0  -8.420787153890911 46.73431392611251 0  -8.652545199128575 46.45610582773207 0  -9 46.99999999997333 0  -8.307027450369006 48.91244312027229 0  -8.076035069637856 49.19065743459485 0  -8.422778549786699 49.73437681992008 0  -8.653734557165643 49.45619192344807 0  -9 49.99999999997949 0  -5.880322315184483 43.11870597010576 0  -6.112178247506604 42.84020643248044 0  -5.761336663788731 42.2951695696111 0  -5.529485977667405 42.57473076559899 0  -5.177531155678914 42.01922659486751 0  -5.808326899666756 23.94111464661353 0  -6.051698632464414 24.20667610719977 0  -5.699831756122571 24.75086101146424 0  -6.294916114163977 24.47230603799816 0  -5.456593364135999 24.48624999978446 0  -5.104729291936757 25.01989492798032 0  -8.3140996715233 52.08929755154399 0  -8.078823730018376 51.82361103544793 0  -8.421510009961843 51.2790475645849 0  -7.843397932225234 51.55798178206244 0  -8.656827741533158 51.5447329361678 0  -9 50.99999999998153 0  -5.858055746266255 38.10820138116985 0  -6.095903963890689 37.83816489390909 0  -5.745357919657644 37.29846219583199 0  -6.333901497276591 37.56818762358449 0  -5.507503049013876 37.56965064426745 0  -5.155822527760106 37.0183300807272 0  -5.846869895806622 34.94092300615212 0  -6.087331015167977 35.20633967412083 0  -5.739764324809772 35.75027060196143 0  -6.327638358061153 35.47182030418582 0  -5.499423359617563 35.48595044160078 0  -5.151892046344892 36.01894102994251 0  -7.943637699530264 50.50951237258274 0  -7.893484396782772 51.03377282631898 0  -8.471973681802449 50.75470295697426 0  -6.227598174977743 36.51979602997113 0  -6.280771839528791 37.04386773235182 0  -5.691848564492438 36.77260394141496 0  -6.277587643401338 35.99567113863394 0  -5.689985316465775 36.27236521863399 0  -6.05684555099428 25.28174237356814 0  -6.175839381887988 24.87706497485664 0  -5.580988867969303 25.15448963112906 0  -8.053765877067788 25.75302596865415 0  -7.93442623636101 26.15190461065061 0  -8.526947189195383 25.87651639123803 0  -7.016982633186413 34.39053986411008 0  -6.672099114631542 34.9312992965062 0  -6.920341902656578 35.25387005981359 0  -7.26525295323668 34.71327955319685 0  -7.513341289368194 35.03598308921751 0  -7.166471031357246 52.63869943322921 0  -7.504712386079428 52.09844985435207 0  -7.261312451119123 51.77619094143054 0  -6.923092350762213 52.31650425023582 0  -6.679522955791779 51.99436600811354 0  -7.026422453947247 38.63860465398608 0  -6.680373898475349 38.10351287932581 0  -6.926220311983542 37.77701354082333 0  -7.272249392527751 38.31228567948637 0  -7.518256257720162 37.98592144468868 0  -6.992762152683381 23.39064680490814 0  -6.643631660727427 23.93155051793638 0  -6.894884540366439 24.25421351936577 0  -7.24404588600373 23.7134521435644 0  -7.495149901913241 24.03620111784904 0  -7.904153829041208 17.50940549564788 0  -7.854405451566741 18.03047077530638 0  -8.452228169391196 17.75464830623686 0  -7.853089373248078 16.98917150881545 0  -8.451925931124455 17.25473304564746 0  -7.893622500265566 8.509619142753023 0  -7.843358709499495 9.030909769468119 0  -8.446953959252271 8.75481164491711 0  -7.934202364412234 2.423955237676264 0  -7.859934989169168 2.987671340091755 0  -8.467235112281509 2.712005584723496 0  -7.842098915639078 7.989206478764922 0  -8.446665001018909 8.254802821332648 0  -7.894444759588767 49.98919231631803 0  -8.471662660491331 50.25478816581038 0  -6.157628352947571 41.61253245620863 0  -6.250962002520085 
[...]
<PointData  Scalars="f_29"> 
<DataArray  type="Float64"  Name="f_29"  format="ascii">3.4936174427024855e+02  3.3725344945343448e+02  3.4112945099414753e+02  3.3291421899652391e+02  3.4543688001133120e+02  3.4152627985627896e+02  3.4921007202686036e+02  3.3710788779117445e+02  3.4097568730093803e+02  3.3275317812989289e+02  3.4529357134692162e+02  3.4143909523040554e+02  5.3116748673424115e+02  5.1874344692912996e+02  5.2271311704921004e+02  5.1427331523504984e+02  5.2714755434372603e+02  5.2318720574363795e+02  5.3127512178336883e+02  5.1944987196129568e+02  5.2285988462521721e+02  5.1447193721046847e+02  5.2783745915807958e+02  5.2440611988588807e+02  8.9197840957441292e+02  9.0509543986879805e+02  8.9624978572720454e+02  9.0043112625684103e+02  9.0085870717759190e+02  9.0978019671413620e+02  9.0960721930465888e+02  8.9716834457526761e+02  9.0075175791028823e+02  8.9189703097323081e+02  9.0601221818771501e+02  9.0243518307572413e+02  6.4932499921210888e+02  6.6204543501485739e+02  6.5348238173728851e+02  6.5757888166216878e+02  6.5794063689348377e+02  6.6654714154990586e+02  6.6669322527030408e+02  6.5412869029324384e+02  6.5809686619591446e+02  6.4949010770778602e+02  6.6270525198586427e+02  6.5870907618437161e+02  9.2725423848956996e+02  9.4051396824214578e+02  9.3163791234993448e+02  9.3597709694806269e+02  9.3614365211233280e+02  9.4507962825492427e+02  9.2739575123044790e+02  9.4062229801829346e+02  9.3175196919122425e+02  9.3604688190127172e+02  9.3627605904742484e+02  9.4521575233795124e+02  7.0081692647992270e+02  7.0269923299520144e+02  7.0661352623295602e+02  7.1241725708392926e+02  6.9690998064826260e+02  6.9300297138258020e+02  8.0443206911866957e+02  8.0251144528362647e+02  7.9855655666109556e+02  7.9268604488001404e+02  8.0839290142319157e+02  8.1234881278158082e+02  7.5246915730171202e+02  7.5055978452920419e+02  7.4664240243074289e+02  7.4081728966749165e+02  7.5639376899131844e+02  7.6031493268557051e+02  1.0898697299079627e+02  1.0724385279822748e+02  1.0368123831909729e+02  9.8378901305025110e+01  1.1255548403372495e+02  1.1611943236730964e+02  4.8099709225882935e+02  4.8282477734757742e+02  4.8662428421032990e+02  4.9225954135600233e+02  4.7720785036984279e+02  4.7341943056558358e+02  6.2062851444268659e+01  6.3716164893280784e+01  6.7312697498691165e+01  7.2564595800041872e+01  5.8472403367532976e+01  5.4882331385341082e+01  1.5629136838308779e+02  1.5796329473078617e+02  1.6162214095234609e+02  1.6695427041873040e+02  1.5263738147717635e+02  1.4898686808607138e+02  2.0393653075419701e+02  2.0216501182376280e+02  1.9854948400610601e+02  1.9316579652076109e+02  2.0755703195833198e+02  2.1117385609523640e+02  2.5193557545931796e+02  2.5015757293719773e+02  2.4650676496789441e+02  2.4108284281209737e+02  2.5559214231402947e+02  2.5924370250695279e+02  3.0035178027322667e+02  3.0208312047632330e+02  3.0582211998273317e+02  3.1129798864009700e+02  2.9662300051315242e+02  2.9289163664469595e+02  4.3128932027887868e+02  4.3305266936152231e+02  4.3685896506150357e+02  4.4243239333228649e+02  4.2749212519905251e+02  4.2369096852116098e+02  3.0181334492295048e+02  2.9735370372579115e+02  2.8849661495348971e+02  2.9294233387625633e+02  2.8412865310601404e+02  4.3278215028351764e+02  4.2823665888821063e+02  4.1920769883966636e+02  4.2373978010954102e+02  4.1474259037056856e+02  2.5033816894053587e+02  2.5478975011287719e+02  2.6355528716978034e+02  2.5909642070194855e+02  2.6782557641159337e+02  4.8258915496346725e+02  4.7800720176891093e+02  4.6896200355890835e+02  4.7349398354701344e+02  4.6453107722903928e+02  2.0233865894986170e+02  2.0675502100602895e+02  2.1544533929873350e+02  2.1103177499163465e+02  2.1969810635640985e+02  1.5769179479388478e+02  1.5334035814835931e+02  1.4469082666803732e+02  1.4902942882848251e+02  1.4042379386833576e+02  6.3455021897308626e+01  5.9168986765454726e+01  5.0649779476029977e+01  5.4932571751956409e+01  4.6461419476260339e+01  1.0741441644806768e+02  1.1176581899000820e+02  1.2032874870972471e+02  1.1597108275384616e+02  1.2449679137181305e+02  7.5075636650199340e+02  7.5553438098485560e+02  7.6494535699979610e+02  7.6016956159524625e+02  7.6955668685476769e+02  8.0271175753188959e+02  8.0752907166213345e+02  8.1701962298172793e+02  8.1219507853725440e+02  8.2165071680597964e+02  7.0246008851876263e+02  6.9773418386569347e+02  6.8840688753602842e+02  6.9308267384320641e+02  6.8384524707396531e+02  3.8056667150272870e+02  3.8496336995120737e+02  3.9388220793813622e+02  3.8935791761421319e+02  3.8944684423888617e+02  3.9839397138817128e+02  8.5823343347975776e+02  8.5355442043374785e+02  8.4406210032535785e+02  8.4887426433451253e+02  8.4872684910635064e+02  8.3927631483567825e+02  6.1690478145414329e+02  6.1237381500692027e+02  6.0324944799694561e+02  6.0783987166352676e+02  6.0772231682237316e+02  5.9869597063550805e+02  5.6336015434464900e+02  5.6787843634390617e+02  5.7703524566511567e+02  5.7239529533673101e+02  5.7247060949087336e+02  5.8164673832207029e+02  8.3052431620911295e+02  8.3969979326848409e+02  8.3487271336949937e+02  5.9014112140825671e+02  5.9898922639901821e+02  5.9440266408743241e+02  5.8125842922622451e+02  5.8591869565777063e+02  4.0267581579858665e+02  3.9601150006760452e+02  4.0056754342553376e+02  4.1056471710412444e+02  4.1712766494721870e+02  4.1263238406979946e+02  5.5426666799270197e+02  5.6332075263113245e+02  5.6878366448288716e+02  5.5971917125323353e+02  5.6517436658268321e+02  8.6776853268519233e+02  8.5831356931611185e+02  8.5263377678183338e+02  8.6207994728369886e+02  8.5639634510420979e+02  6.2605735620783423e+02  6.1693458847006434e+02  6.1142728831832744e+02  6.2053896393374157e+02  6.1502328253433438e+02  3.7170448222968605e+02  3.8052047640746213e+02  3.8583524210345740e+02  3.7700942555717842e+02  3.8231619689768610e+02  2.7603410880647340e+02  2.8446293439812422e+02  2.8005277347833362e+02  2.6763046154279999e+02  2.7195585497916403e+02  1.3252261545864570e+02  1.4075561012456424e+02  1.3644404783524735e+02  3.7365089435778124e+01  4.6124580363362519e+01  4.1889698126255148e+01  1.2431301431987377e+02  1.2853510423328169e+02  8.2142805285597399e+02  8.2611255393419412e+02  6.7680215821730042e+02  6.8489939330611242e+02  6.8031001902746516e+02  3.9326088506598921e+02  3.9131196893344287e+02  3.8778457418964399e+02  8.4238185720676324e+02  8.4562767772247014e+02  8.4938730460329441e+02  6.0154391370002111e+02  6.0469327190948445e+02  6.0827883971091285e+02  5.7867364941811979e+02  5.7553715494294170e+02  5.7191903635255289e+02  4.6012125154756342e+02  4.6676774520620609e+02  4.6231394441358714e+02  7.1305765899794289e+02  7.0301250779345798e+02  7.1274017004443704e+02  7.9203405527969244e+02  8.0218309806304705e+02  7.9236124684046672e+02  7.4016155251175837e+02  7.5023182673715758e+02  7.4049065964044519e+02  9.7780075046727788e+01  1.0694232063218556e+02  9.8081561454320578e+01  7.3078270579742039e+01  6.3974860096206854e+01  7.2823797753662049e+01  4.9301033944419589e+02  4.8319548945642919e+02  4.9263871297992927e+02  1.6746999925370059e+02  1.5822336718189200e+02  1.6721435387197306e+02  1.9255602983151317e+02  2.0185843847998987e+02  1.9286289678197684e+02  2.4047639450642359e+02  2.4985218495104854e+02  2.4078086539183826e+02  3.1196805584625548e+02  3.0242126612990000e+02  3.1163753724628504e+02  4.4298582864314267e+02  4.3333081540222861e+02  4.4271169518868754e+02  4.1834076647274276e+02  4.2101545269297281e+02  4.2481305655409642e+02  2.8698772573490282e+02  2.8993963869897067e+02  2.9366730477880509e+02  2.6506689494488131e+02  2.6215685664489246e+02  2.5849879043700344e+02  4.6781325071873050e+02  4.7061865432168918e+02  4.7440141511376834e+02  2.1677502611932641e+02  2.1397522633838378e+02  2.1035324219277933e+02  1.4334456188584207e+02  1.4616607623283306e+02  1.4981481047123478e+02  5.1367857275829081e+01  5.3125855647080613e+01  5.6713647525617390e+01  1.2181316660549784e+02  1.1896778709448505e+02  1.1539695396274870e+02  6.8720382100508346e+02  6.9010466104656962e+02  6.9400761119506728e+02  8.1864819223000461e+02  8.1550010902542772e+02  8.1153746302634943e+02  7.6637046431726958e+02  7.6334340540349592e+02  7.5941669536676966e+02  6.6775669919839311e+02  6.7174608852535823e+02  9.1855636141353807e+02  9.0949632764092905e+02  9.1412616058179594e+02  9.1847945589452809e+02  9.1045623484719374e+02  9.1403873459234671e+02  9.2722705147201873e+02  9.2286583033012835e+02  9.2730229599990560e+02  9.2297580277579755e+02  2.1866970650032044e+01  3.1951101376959610e+01  2.4202719475910328e+01  2.6534545078168339e+01  2.9609625911900867e+01  9.8478246055448062e+02  9.8483704864556000e+02  9.9165386388099387e+02  9.8488841540107649e+02  9.9160378152278224e+02  9.9842963510085406e+02  9.8478511813465150e+02  9.8484121572617130e+02  9.9165659896750208e+02  9.9160585132742551e+02  9.9842963510085406e+02  9.5718135275277677e+02  9.4657463985312222e+02  9.5111433303478054e+02  9.5723220457485479e+02  9.4664223486414471e+02  9.5120535587701772e+02  1.1956255496968707e+01  1.2004629211532594e+01  6.0222638869843843e+00  1.2049402393532144e+01  5.9772035797769982e+00  0.0000000000000000e+00  3.5477189711962063e+02  3.4872232730094976e+02  3.5600376748543414e+02  3.4749082499982512e+02  3.5354793614536260e+02  5.3686850073122594e+02  5.3065469454971537e+02  5.3812146865494799e+02  5.2940214586892898e+02  5.3562258320742774e+02  6.4365551755882859e+02  6.5000038963212546e+02  6.4242502537799783e+02  6.5122642786777703e+02  6.4487573792149885e+02  8.8731670469200071e+02  8.9387805918710058e+02  8.9136264418143230e+02  8.8481851859084168e+02  8.8230787766836511e+02  1.1815211516784505e+01  1.1934004632776182e+01  6.0234288610757725e+00  5.9043003999189114e+00  0.0000000000000000e+00  3.2840831838759118e+02  3.3497044304942881e+02  3.3068584084602054e+02  5.0970950872775018e+02  5.1644745498636541e+02  5.1200442199152849e+02  6.7111320063965923e+02  6.6434445263669954e+02  6.6881779357539756e+02  9.0948023536328583e+02  9.1855034784599502e+02  9.1853241957762839e+02  9.2725157713975671e+02  9.1851023237429399e+02  9.2728561680952146e+02  9.1048115193429123e+02  6.6693314394856191e+02  6.7597892505108553e+02  6.7515653373357861e+02  3.3812839395118618e+02  3.3978268420506862e+02  3.4706780150858094e+02  3.3982630316441094e+02  3.4876260968962811e+02  5.1864427389167849e+02  5.2091463401753128e+02  5.2838261151782297e+02  5.2152586490397550e+02  5.3125993277170960e+02  8.9748692091212786e+02  8.9896212486089473e+02  8.8989473770988775e+02  6.6113523587384066e+02  6.5992311614575328e+02  6.6814693197560848e+02  6.5055827765820482e+02  6.5177557047683149e+02  6.5935990077408758e+02  9.3443204211539785e+02  9.3524134572875175e+02  9.2648033217026443e+02  9.3520661518501549e+02  9.4295687602295880e+02  9.4218160990446358e+02  9.4993078035765905e+02  8.9996203234690176e+02  9.0800648630966862e+02  9.4298911826223934e+02  3.5576291194291070e+02  3.4865009274243727e+02  3.5588335573471511e+02  5.3787956437650166e+02  5.3114510882792183e+02  5.3800101068299352e+02  6.4275425096436174e+02  6.5073102864670648e+02  6.4259844606492709e+02  2.8151258612625833e+02  2.7054603505781495e+02  1.3793496098809359e+02  4.4367146372249486e+01  1.2716381853275136e+02  8.2458207070656238e+02  8.9150613570071982e+02  8.8392215233785453e+02  8.8552637471087075e+02  8.9397681123255586e+02  2.7607806818019242e+02  2.7057056382827659e+02  2.7605824646118708e+02  2.8153161339870184e+02  1.3257116000992309e+02  1.2719037409330845e+02  1.3254903059903745e+02  3.8717711070038739e+01  4.5042673243180900e+01  3.8044414480330921e+01  1.3795659803286520e+02  8.3056611973421946e+02  8.2460495026171759e+02  8.3054735348638349e+02  3.2303895548119795e+02  3.3327501569820532e+02  3.3058275478151160e+02  3.2572861216103632e+02  5.0430202139323586e+02  5.1417898002895834e+02  5.1147186639735787e+02  5.0700907280321655e+02  6.6611974164893650e+02  6.7313244491019395e+02  6.8199829269114241e+02  6.8118052049651783e+02  9.7376106608078294e+02  9.6208997964203195e+02  9.7038071873293131e+02  9.6700170512624709e+02  9.6546987541769295e+02  9.7376253747968371e+02  9.6210742453622504e+02  9.7038360723017399e+02  9.6548981188923767e+02  9.5357877828701010e+02  9.5355166382778657e+02  2.2530211285690083e+02  2.1823322155557142e+02  2.2252646184445064e+02  7.7560986133824395e+02  7.6795717159106675e+02  7.7260894083081473e+02  8.3645443519697744e+02  5.8439817185880622e+02  5.9583858461320028e+02  8.3647285340711130e+02  5.9008538221009667e+02  5.8437941151022005e+02  5.9011030283384548e+02  5.9581486419008570e+02  4.0656735023618342e+02  4.1445301502006782e+02  4.1245406750258996e+02  4.0856525689900405e+02  4.8103585785935024e+02  4.7273249920259155e+02  4.8182422077932188e+02  2.5180058817066922e+02  2.5107137560316201e+02  2.5981934759485125e+02  3.0025386386853990e+02  2.9217828153875962e+02  3.0103560593313841e+02  4.3119567027575221e+02  4.2296014536077615e+02  4.3199109932164271e+02  6.1956080161305394e+01  5.4195608519187466e+01  6.2707801394230664e+01  1.0884143682253874e+02  1.0812925213749274e+02  1.1667651782670559e+02  1.5616476733730596e+02  1.4828200291228413e+02  1.5693021005402878e+02  2.0378930910196249e+02  2.0306568385497633e+02  2.1174699135632105e+02  7.5233337964482132e+02  7.5154675202708552e+02  7.6094775366079864e+02  8.0429851136622381e+02  8.0350728462530765e+02  8.1298051753841139e+02  7.0085712794230233e+02  6.9229942297935884e+02  7.0167058669607616e+02  3.3262650376150924e+02  3.2508559342507851e+02  3.2712186576115801e+02  5.1368755389837577e+02  5.0651751249524062e+02  5.0872561378826924e+02  4.5434339059439480e+02  4.4898623716685358e+02  4.5499186932909765e+02  4.4833862595242005e+02  4.5369586923561110e+02  7.2601630066421330e+02  7.1984012919061195e+02  7.2661232312728805e+02  7.1923490212735317e+02  7.2543333386704182e+02  7.2721218403071953e+02  7.3338469904622070e+02  7.3398777304180908e+02  7.2781435057878230e+02  4.6396343292342243e+02  4.5755304938953992e+02  4.6140217987678341e+02  3.3427896224734508e+02  5.1656535143698568e+02  3.2623898233697020e+01  3.5138605112408334e+02  5.3340260861530533e+02  8.8964885579508768e+02  6.4709627431276488e+02  3.2994871311787091e+02  5.1161248524141865e+02  3.9796259195355566e+02  3.9991305647261817e+02  4.0462139053035230e+02  5.5280362556248394e+02  5.6258174681485718e+02  5.5353696844312390e+02  8.6928268926566955e+02  8.5907016006672563e+02  8.6853044443548299e+02  6.2737698437652955e+02  6.1759119561766522e+02  6.2672121817168988e+02  3.7047631456163646e+02  3.7990030805144704e+02  3.7109238226524883e+02  1.8001034938682039e+02  1.8629744545210647e+02  1.8004296496446344e+02  1.8626508388026707e+02  1.7997728091303145e+02  1.7375452254091900e+02  1.7372119457706248e+02  8.5424792402972372e+01  9.1615576662563186e+01  8.5454553508891749e+01  9.1585487089671204e+01  8.5394654059120143e+01  7.9263815691287377e+01  7.9234118071534638e+01  9.5846529560452598e+02  3.8194613840023931e+02  3.8126830550004291e+02  3.9012816562795206e+02  8.5672645222916924e+02  8.4798892278127482e+02  8.5748025526990750e+02  6.1549342419056109e+02  6.0703562302085265e+02  6.1620723465426215e+02  5.6477205441229921e+02  5.6407691644858608e+02  5.7317243237061962e+02  4.6508435273385862e+02  4.6003630163318013e+02  4.5938891060822522e+02  7.3682973210447483e+02  7.3172105793870298e+02  7.3112609375868954e+02  7.1640378864131594e+02  7.2150674950656514e+02  7.2210700253216260e+02  2.2904330527283645e+02  2.2103687234882014e+02  2.2290735454708658e+02  2.2717577708891275e+02  7.7965184118558693e+02  7.7098854929235517e+02  7.7300901257435521e+02  7.7763378345630542e+02  0.0000000000000000e+00  0.0000000000000000e+00  6.0238951634712237e+00  9.9842963510085406e+02  9.9842963510085406e+02  9.9165715305142749e+02  9.9842963510085406e+02  0.0000000000000000e+00  3.5257534106946366e+02  5.3459389081499489e+02  8.8871559275024686e+02  6.4614553330549222e+02  9.7926906594379602e+02  9.7932228375470231e+02  9.7927188997357405e+02  9.7932393842270426e+02  4.7207986623510756e+01  3.9967343720560365e+01  4.6903097456379250e+01  4.6619971877704565e+01  4.0283878429153660e+01  3.3343751110737877e+01  3.6311714412853217e+02  3.6324002276861466e+02  5.4534037057979344e+02  5.4546214709061303e+02  6.3506441887181700e+02  6.3489928234394995e+02  8.7739927993737786e+02  8.7579432410205152e+02  3.1953992639620606e+02  3.1750131968370192e+02  5.0086418711889917e+02  4.9865886073584534e+02  3.0918981060124672e+01  3.2163427564515359e+01  3.8753867429472585e+01  1.6907981657651039e+01  1.6959867515037072e+01  2.3288890165915439e+02  2.3475561584111986e+02  7.8382113605905340e+02  7.8583874844100819e+02  2.1112156500918491e+01  1.6460435558562139e+01  1.6579127199925175e+01  2.3053415317759161e+02  2.3812826004346456e+02  2.3581037874084853e+02  7.8127597710564021e+02  7.8949512429519848e+02  7.8698464158659431e+02  3.6696593140358215e+02  3.6148194879607644e+02  3.6025532814643282e+02  5.4960873143520166e+02  5.4386240530510838e+02  5.4261356151126824e+02  6.3071324125831609e+02  6.3656665609099127e+02  6.3779372885375017e+02  8.7318294238972908e+02  8.7774543839905243e+02  8.8024027459076422e+02  3.2178931542326632e+02  3.1421698764949662e+02  3.1643116281632518e+02  5.0322656410429170e+02  4.9537544384296717e+02  4.9771912902677900e+02  3.0254956374872659e+01  2.2516797547088313e+01  2.3159360751849643e+01  7.8704985238713004e+02  7.7803240409571015e+02  7.7433285581181974e+02  7.6902052680776637e+02  7.8335158779356289e+02  1.3261533431767691e+02  1.3687951360388891e+02  1.4118790614496933e+02  1.2830976554257407e+02  1.2405249829280508e+02  2.8400648669857759e+02  2.7567546747578552e+02  2.7171337252925906e+02  2.6735553399420229e+02  2.8004258575082258e+02  1.7221304423612818e+02  1.8003892797162311e+02  1.8395768889979632e+02  1.8787845773448470e+02  1.7612750818546490e+02  7.7738761393614581e+01  8.5448565243335594e+01  8.9309054026184270e+01  9.3170470064582773e+01  8.1596269065441305e+01  2.3587983044218865e+02  2.2413357270871879e+02  2.3246269990063772e+02  2.2755221133191864e+02  2.1922979770394966e+02  3.1456363175870467e+02  3.1880443242999075e+02  3.2148119421184475e+02  4.9608656561704692e+02  5.0019570721983672e+02  5.0289464472831605e+02  6.8559303346603588e+02  6.8037207497622910e+02  6.7835440663168004e+02  3.9672206516521743e+02  4.0164544264611271e+02  4.0363873340839342e+02  4.4713432367757127e+02  4.5106526034041048e+02  4.5362657371631667e+02  4.0912202990986486e+02  4.1106347888255704e+02  4.1555968369677049e+02  5.8126514221943557e+02  5.9460079211392167e+02  5.8567399343434295e+02  5.9018928254351795e+02  5.9912025993004784e+02  8.3973414704317975e+02  8.3041990052189635e+02  8.2583903208251536e+02  8.2111901450203629e+02  8.3515107361049718e+02  2.9935900434532687e+01  3.6035031071248568e+01  3.0688851612033852e+02  3.0913493050743995e+02  4.3788309415828599e+02  4.4535450045316998e+02  4.4024958297735714e+02  4.4770619319424759e+02  1.6257992569402424e+02  1.6972995455656115e+02  1.6483670947016719e+02  1.7196458428300639e+02  7.0775983409516664e+02  7.1556492437801330e+02  7.1022997449108243e+02  7.1801926532085690e+02  1.9744694243809352e+02  1.9021967656576001e+02  1.9510780646947831e+02  1.8791002580959420e+02  7.9737345466253123e+02  7.9482942003757398e+02  7.4545867120342598e+02  7.3763823697453915e+02  7.4293287542523410e+02  7.3514983778824296e+02  1.0259720307972155e+02  9.5480339663621152e+01  1.0029386352134024e+02  9.3207745252075640e+01  6.8265553146942040e+01  7.5306318826284425e+01  7.0490315879146408e+01  7.7507464629043454e+01  2.4540769849387371e+02  2.4305541226014927e+02  4.8780011197797972e+02  4.9012655590104606e+02  5.5566009062819967e+02  5.5041804411637088e+02  5.4805806856394736e+02  5.5807901102262144e+02  6.2465944509716815e+02  6.2994794394422274e+02  6.3248557398166417e+02  6.2213727842538685e+02  8.6623727229008250e+02  8.7177945509022697e+02  8.7423140190598542e+02  8.6375544102083234e