<?xml version="1.0"?>
<VTKFile type="UnstructuredGrid"  version="0.1"  >
<UnstructuredGrid>
<Piece  NumberOfPoints="2690" NumberOfCells="4864">
<Points>
<DataArray  type="Float64"  NumberOfComponents="3"  format="ascii">-5.000086902391952 22.0000149199076 0  -5.603196396593736 21.2625151502924 0  -5.0000850397492 21.50001613053487 0  -5.000083073992389 21.00001502190887 0  -5.603198069521798 21.76251541915025 0  -6.20630943990353 21.52501345464504 0  -9 21.99999999996945 0  -8.396887675316529 21.26250315670226 0  -9 21.49999999997139 0  -9 20.99999999997333 0  -8.396887972964805 21.76250313653863 0  -7.793775663248941 21.52500623359378 0  -9 32.9999999999446 0  -8.396894233000019 32.26250309919627 0  -9 32.49999999994358 0  -9 31.99999999994255 0  -8.396894530927659 32.76250310319485 0  -7.793788778823334 32.5250061702471 0  -5.000130425305595 33.00001617166369 0  -5.51981102565161 32.2963739567694 0  -5.000128513012039 32.5000183282487 0  -5.000126526842283 32.00001562755717 0  -5.519812739914646 32.79637438416986 0  -6.039495223197495 32.59273023416571 0  -5.000213598132802 54.00001551359492 0  -5.603308746353137 54.73751478879774 0  -5.603307094167292 54.23751545656508 0  -6.206400387361033 54.47501312702958 0  -5.000215493070236 54.50001654760032 0  -5.00021737964511 55.00001558094647 0  -9 54.99999999998974 0  -8.469962567792242 54.2961165420449 0  -9 54.49999999998872 0  -9 53.99999999998769 0  -8.469962822189551 54.79611647618699 0  -7.93992544062914 54.5922329728837 0  -9 39.99999999995897 0  -8.396899286475604 40.73750305499416 0  -8.396898988622773 40.23750305699561 0  -7.793798260369449 40.47500606929135 0  -9 40.49999999996 0  -9 40.99999999996102 0  -5.000162074592168 41.00001428301415 0  -5.576571036646634 40.26783387241347 0  -5.000160174718531 40.50001660959318 0  -5.000158251873874 40.00001617990453 0  -5.576572719679105 40.76783361799382 0  -6.152983584790647 40.53565026250657 0  -9 55.99999999999179 0  -8.421739609983176 56.7433280492678 0  -8.421739357843737 56.24332800862702 0  -7.843478980378972 56.48665601485507 0  -9 56.49999999999282 0  -9 56.99999999999384 0  -5.000221469933243 56.00001480029981 0  -5.578484499523321 56.74334007919966 0  -5.578482854428419 56.24334001322572 0  -6.156744008495487 56.48666337866227 0  -5.000223423569508 56.50001706283281 0  -5.000225308209678 57.00001561342751 0  -7.437566411617922 43.0000085662375 0  -6.589722676765946 43.10818378670675 0  -7.199072118749102 43.33734710188082 0  -6.960577985304672 43.67468565396916 0  -6.828216819149412 42.77084515567802 0  -6.218866946683969 42.54168173837768 0  -6.562618069524484 49.00001631717362 0  -7.410456859071013 48.89184012886905 0  -6.801110812889897 48.66267766114909 0  -7.039603715903089 48.32533895398172 0  -7.171963965185609 49.22917875120937 0  -7.781309585569772 49.45834130864126 0  -6.562610825942776 46.00001528005618 0  -7.410452138207459 45.89183946608059 0  -6.801104280180446 45.66267644587452 0  -7.039597894245819 45.32533769164727 0  -7.171958535312529 46.22917821084896 0  -7.781305966981799 46.4583410786949 0  -6.562516871913547 7.000015890383512 0  -7.410390870029463 6.89183994049522 0  -6.801019525122277 6.662677228586784 0  -7.039522338192499 6.325338567993872 0  -7.17188806954425 7.229178600341314 0  -7.781258989215815 7.458341296048298 0  -7.437546330834847 30.0000084473186 0  -6.589691697953989 30.10818353842398 0  -7.19904897285473 30.33734673654446 0  -6.960551774564302 30.67468497315223 0  -6.828188906272714 29.77084519861091 0  -6.218831201720162 29.54168203186397 0  -6.562509761603943 4.000015094433333 0  -7.410386602124849 4.108180257913665 0  -6.801014558414498 4.337350840308601 0  -7.039519198213082 4.6746865285966 0  -7.171881972579396 3.7708445351809 0  -7.781254423020219 3.541674083978355 0  -6.562524086092748 10.0000160437464 0  -7.41039590952982 10.10818089269652 0  -6.801027493647529 10.33735157661418 0  -7.039530742284701 10.67468710606281 0  -7.171892651181285 9.770845378564358 0  -7.781261491990432 9.541674695505828 0  -6.562531311531752 13.00001618658833 0  -7.410400281807595 12.89184017912998 0  -6.801032546313156 12.66267752860239 0  -7.039533940062436 12.32533887386715 0  -7.171898898148021 13.22917886109645 0  -7.781266208391128 13.45834148374269 0  -6.562538547039821 16.0000164527491 0  -7.410404999094521 15.8918402540194 0  -6.801039072059417 15.66267781028624 0  -7.039539756642746 15.32533912406361 0  -7.171904323968596 16.22917887769276 0  -7.781269825317115 16.45834140091393 0  -6.562545776561071 19.00001462788531 0  -7.410410055190138 19.10817979149006 0  -6.801047063602168 19.33734988199588 0  -7.039548190631717 19.67468523476395 0  -7.171908918187363 18.77084439276304 0  -7.7812723359768 18.54167410850343 0  -6.562565046497704 27.00001402695646 0  -7.410422621380843 27.1081794100994 0  -6.80106444762663 27.33734961027062 0  -7.03956368856278 27.67468521415922 0  -7.171923369695161 26.77084371350752 0  -7.78128197022778 26.54167353814626 0  -8.269143342509997 19.09390509074777 0  -8.025207905876627 18.8177895739768 0  -8.390636004795635 18.27083709937674 0  -8.634571473577038 18.54695261590358 0  -9 17.99999999998495 0  -8.26914912010478 27.09390489891184 0  -8.025215611816771 26.81778922065627 0  -8.390640821936049 26.27083675397452 0  -8.634574362364766 26.54695244611226 0  -9 25.99999999995395 0  -8.269141038395038 15.90610409436166 0  -8.025205365231665 16.18222275688592 0  -8.390635075826362 16.72917066343775 0  -8.634570716897347 16.4530520202354 0  -9 16.99999999998883 0  -5.730967687665377 30.09391925935559 0  -5.974899375335003 29.81780062285294 0  -5.609473070452678 29.27085208777341 0  -5.365541332867463 29.5469714572043 0  -5.0001145535223 29.00001488527409 0  -8.269138869683468 12.90610408940213 0  -8.025202472447122 13.18222278323268 0  -8.390633267437657 13.72917074904431 0  -8.634569632454793 13.45305205237785 0  -9 13.99999999999401 0  -8.269136838860771 10.09390560619195 0  -8.025199231930891 9.817790151824033 0  -8.390630583218975 9.270837344862548 0  -8.634568222121445 9.546952799271105 0  -9 8.99999999999857 0  -8.269132573068674 4.093905305673534 0  -8.025193559332081 3.817789708758238 0  -8.390627078418643 3.270837018015921 0  -8.634566109033409 3.546952618411297 0  -9 2.999999999998668 0  -8.269134543665759 6.906103969947134 0  -8.025196700182008 7.182222630020395 0  -8.390629657349724 7.729170652802499 0  -8.634567468126162 7.4530519943068 0  -9 7.999999999999485 0  -8.269162712279112 45.90610375146969 0  -8.025234272978516 46.18222239667716 0  -8.390653146902999 46.72917056818495 0  -8.634581553872616 46.45305192444378 0  -9 46.99999999997333 0  -8.269164882185789 48.90610402772591 0  -8.025237167272927 49.18222267697494 0  -8.390654955634009 49.72917061675948 0  -8.634582638671903 49.45305199074311 0  -9 49.99999999997949 0  -5.731009708338168 43.09391947146856 0  -5.974938257715211 42.81780059375812 0  -5.609516646261955 42.27085156691019 0  -5.365588049229905 42.54697125482365 0  -5.000165958379065 42.00001427880292 0  -5.726204522504809 23.91634221047353 0  -5.974962780557737 24.18407626181543 0  -5.611909716380628 24.72591628512859 0  -6.223720902594261 24.45181036036768 0  -5.36315151151183 24.45818298358069 0  -5.000098922047623 25.0000148604755 0  -8.27391024330851 52.08368068487911 0  -8.025159458368252 51.81594655716312 0  -8.388204105886357 51.2741062805535 0  -7.776408542366788 51.54821247449164 0  -8.636954928145601 51.5418404073253 0  -9 50.99999999998153 0  -5.726250370335136 38.08369485594222 0  -5.975003537433325 37.81595743108959 0  -5.611951712447018 37.27412076905717 0  -6.223756840829541 37.54822006709945 0  -5.363198490064321 37.54185907746762 0  -5.000146171141845 37.00001359126755 0  -5.726240127066034 34.91634205481398 0  -5.974995681708463 35.18407599616287 0  -5.611946571153373 35.72591583765982 0  -6.223751100386081 35.45180998264249 0  -5.363191063009574 35.45818275309387 0  -5.000142437670415 36.00001417461363 0  -7.883838026509534 50.50018252560995 0  -7.830123257030658 51.0241975201711 0  -8.441919150572803 50.75009122073605 0  -6.116468001600444 36.50001488672115 0  -6.170112446029255 37.02411737904851 0  -5.558307007741829 36.75001696888225 0  -6.170109526568556 35.9759123421665 0  -5.558305323738892 36.25001683036263 0  -5.976773858294798 25.25997689930795 0  -6.100247333720388 24.85589366722443 0  -5.48843641344343 25.12999868670524 0  -8.027523248894157 25.74582062740638 0  -7.904402561038763 26.14374708213845 0  -8.513761685575275 25.87291031638621 0  -6.942398521723166 34.37591410401814 0  -6.583074617860075 34.91386212561804 0  -6.840027140830936 35.23840908450026 0  -7.199351066100941 34.70046118871876 0  -7.456303444886046 35.02500824566688 0  -7.057772413978587 52.62410791755887 0  -7.417090287918156 52.08616028039265 0  -7.160142233454365 51.76161358036608 0  -6.800824381052918 52.29956126416405 0  -6.543876183351696 51.9750146591467 0  -6.942407167453682 38.62410777303746 0  -6.583082196542165 38.086164008035 0  -6.840032525792887 37.76161410473171 0  -7.199357474424438 38.29955800199104 0  -7.456307947003181 37.97500819942181 0  -6.942376144141027 23.3759141958901 0  -6.583048330753489 23.91386232795306 0  -6.840003647392613 24.23840935622135 0  -7.199331482308436 23.70046133019856 0  -7.456286655129559 24.02500842077986 0  -7.883947876021996 17.50000715618407 0  -7.832610079503149 18.02084065634115 0  -8.441974075959545 17.75000353373218 0  -7.83260887715363 16.97917428733558 0  -8.441973800067407 17.25000360235387 0  -7.883937948319535 8.500007330944394 0  -7.83259969358028 9.020841014232058 0  -8.441969111856775 8.750003667548004 0  -7.931244264962483 2.415602035379164 0  -7.856249286769289 2.978638038650325 0  -8.465622264062592 2.707801041124815 0  -7.832598494752052 7.979174317278066 0  -8.441968836836606 8.250003660269295 0  -7.832573832744726 49.97926192650399 0  -8.441918875390618 50.2500912868647 0  -6.02671733105911 41.59311372669355 0  -6.122792180999267 42.06739779508201 0  -5.
[...]
<PointData  Scalars="f_29"> 
<DataArray  type="Float64"  Name="f_29"  format="ascii">2.8951396626778472e+01  2.7973283755254535e+01  2.8287386278906613e+01  2.7623932080907714e+01  2.8633826009710546e+01  2.8320331638489304e+01  2.8952824001723229e+01  2.7974162435402409e+01  2.8288696543522605e+01  2.7625303238718782e+01  2.8634625177390451e+01  2.8320864072367574e+01  4.3432248297124005e+01  4.2453603614170184e+01  4.2767936701701572e+01  4.2104439030348210e+01  4.3114108350150346e+01  4.2800461883026514e+01  4.3428777894077399e+01  4.2498757660942637e+01  4.2767668798243555e+01  4.2107087087983885e+01  4.3157856793416080e+01  4.2889539840646258e+01  7.1060500688249391e+01  7.2039714617486595e+01  7.1378935185925314e+01  7.1692972419293270e+01  7.1723755767534698e+01  7.2389045519274447e+01  7.2387401456419965e+01  7.1457804183999528e+01  7.1726931762154123e+01  7.1066241381653072e+01  7.2117371077049370e+01  7.1848621962526735e+01  5.2633528037602112e+01  5.3612338114218154e+01  5.2951716062179344e+01  5.3265413852495158e+01  5.3297965934636345e+01  5.3961560768285722e+01  5.3959879590544681e+01  5.2991539463734938e+01  5.3297908903984890e+01  5.2634826803256985e+01  5.3652061328102356e+01  5.3345858306509719e+01  7.3701639165964551e+01  7.4685834236749471e+01  7.4025659066749427e+01  7.4346387087857195e+01  7.4362730453025947e+01  7.5027039601455712e+01  7.3702130585675391e+01  7.4685949848599321e+01  7.4025839835346474e+01  7.4346511452501645e+01  7.4362993858999189e+01  7.5027186096817815e+01  5.6592116447518102e+01  5.6734595332396609e+01  5.7036013756640891e+01  5.7479962874616476e+01  5.6290598736095966e+01  5.5989329101796159e+01  6.4486226637849143e+01  6.4343930444966347e+01  6.4042484195199762e+01  6.3598752355170447e+01  6.4787675583489076e+01  6.5088891167450626e+01  6.0540104903383259e+01  6.0397275925689350e+01  6.0096168068713745e+01  5.9652188348658839e+01  6.0841159511529625e+01  6.1142177139219989e+01  9.2089439466749390e+00  9.0662799937013805e+00  8.7651641607370063e+00  8.3214003641068377e+00  9.5100816787635445e+00  9.8110385817284715e+00  3.9474200901075385e+01  3.9616788481463878e+01  3.9918187857365481e+01  4.0362308499494773e+01  3.9172884981497184e+01  3.8871543741344937e+01  5.2630172730095426e+00  5.4052243856257389e+00  5.7066850290922169e+00  6.1503556491614892e+00  4.9614718254776227e+00  4.6601226711956230e+00  1.3155174547513413e+01  1.3297780651795588e+01  1.3598927679105520e+01  1.4042651149478093e+01  1.2854004649317798e+01  1.2553080252257653e+01  1.7100922478911968e+01  1.6958418707731433e+01  1.6657218059909571e+01  1.6213532489322215e+01  1.7402118714016499e+01  1.7703167659461929e+01  2.1046779360568209e+01  2.0904501596307060e+01  2.0603069734830100e+01  2.0159373650054352e+01  2.1348208308354334e+01  2.1649392426824701e+01  2.4993732213671738e+01  2.5136577306010388e+01  2.5437807027271443e+01  2.5881996392945354e+01  2.4692596167803323e+01  2.4391599280062092e+01  3.5527036254823599e+01  3.5669562133019554e+01  3.5970846349927207e+01  3.6414737532928775e+01  3.5225692023696055e+01  3.4924383284361184e+01  2.5117990409279102e+01  2.4754922366355167e+01  2.4036794818743338e+01  2.4399280649779492e+01  2.3683995925698746e+01  3.5651041060104760e+01  3.5287751250143877e+01  3.4568864375071719e+01  3.4931593034527197e+01  3.4214691094354961e+01  2.0923124966374079e+01  2.1286192809004881e+01  2.2004655098616997e+01  2.1641459205004736e+01  2.2356586443346586e+01  3.9597944569017663e+01  3.9234819881076561e+01  3.8516069149128754e+01  3.8878657590057998e+01  3.8162015359033710e+01  1.6976967707928765e+01  1.7340000642169077e+01  1.8058300662063115e+01  1.7695832340405872e+01  1.8411911231512935e+01  1.3279407277803127e+01  1.2916340714150929e+01  1.2198321589215638e+01  1.2560796667976442e+01  1.1845540109052406e+01  5.3866508758258611e+00  5.0234217153418337e+00  4.3045689908445555e+00  4.6679094232776466e+00  3.9519943642748756e+00  9.0845440894375713e+00  9.4477423888822596e+00  1.0166202832560122e+01  9.8029287541673025e+00  1.0518115562008648e+01  6.0415795926889743e+01  6.0778910145691157e+01  6.1497349759949394e+01  6.1134814269150226e+01  6.1851011465070279e+01  6.4362544988986798e+01  6.4725652352316558e+01  6.5444198887352982e+01  6.5080960261432963e+01  6.5796178949993816e+01  5.6716045411650185e+01  5.6352792202266755e+01  5.5634263581396162e+01  5.5996920963409494e+01  5.5280971792297024e+01  3.1469080912914965e+01  3.1821317706348896e+01  3.2533418231303862e+01  3.2173608960132974e+01  3.2181762935704022e+01  3.2891787295614833e+01  6.8544542120689357e+01  6.8192354430429731e+01  6.7480885804762693e+01  6.7839983631566923e+01  6.7832442075256211e+01  6.7123816914115963e+01  5.0117438447063115e+01  4.9765182064155262e+01  4.9053624296017716e+01  4.9412787738579489e+01  4.9405243077408642e+01  4.8696480026627036e+01  4.5947764999857412e+01  4.6300164509091985e+01  4.7012158668102614e+01  4.6652604165850462e+01  4.6659715438795629e+01  4.7368438374727617e+01  6.6460236691508257e+01  6.7150416020288361e+01  6.6789675048034653e+01  4.8032625917926779e+01  4.8723030104729020e+01  4.8362165212322282e+01  4.7342271293263487e+01  4.7702402087210821e+01  3.3237224741262366e+01  3.2705261079388563e+01  3.3066234178458849e+01  3.3876918244855972e+01  3.4400804695709425e+01  3.4044104761050754e+01  4.5237476399007690e+01  4.5945169682428634e+01  4.6372316514129665e+01  4.5664653331965262e+01  4.6091820358108230e+01  6.9255300872638742e+01  6.8547403981106612e+01  6.8120243606989078e+01  6.8828030240400992e+01  6.8400770177330401e+01  5.0827932008946547e+01  5.0120193877745145e+01  4.9693069880834365e+01  5.0400772853413130e+01  4.9973613249625643e+01  3.0758120839135145e+01  3.1465957822396046e+01  3.1892934481684030e+01  3.1185163774157484e+01  3.1612118076944796e+01  2.3020350547913520e+01  2.3706269778219539e+01  2.3349830635946610e+01  2.2334521496992949e+01  2.2690333321911961e+01  1.1181984378197267e+01  1.1867850236829023e+01  1.1511394730627405e+01  3.1775350811556886e+00  3.9192156183979807e+00  3.5630211587788847e+00  1.0496174543463807e+01  1.0851902307757777e+01  6.5774211026381408e+01  6.6130079384461837e+01  5.4740347546937514e+01  5.5365058583561684e+01  5.5008875945408903e+01  3.2488304954818155e+01  3.2330998590349949e+01  3.2050158984537340e+01  6.7349286249135602e+01  6.7594594494008163e+01  6.7875014546500793e+01  4.8924734138663013e+01  4.9168701106501295e+01  4.9449180435572558e+01  4.7143749316689807e+01  4.6898224024044950e+01  4.6617774781592182e+01  3.7814633915471305e+01  3.8343240820301254e+01  3.7986608030744947e+01  5.7526658230383326e+01  5.6758032049630756e+01  5.7503346804370437e+01  6.3552370824672373e+01  6.4320596090927481e+01  6.3575484721118606e+01  5.9605400288364663e+01  6.0373814484690683e+01  5.9628731999536733e+01  8.2746075542043975e+00  9.0427660641649741e+00  8.2979871319143115e+00  6.1968410912913550e+00  5.4285741305355364e+00  6.1735993509658087e+00  4.0419550595598473e+01  3.9645496656471394e+01  4.0391068874938227e+01  1.4089359333638010e+01  1.3321273104562852e+01  1.4066020969841627e+01  1.6166917870317057e+01  1.6935009006029240e+01  1.6190204549516672e+01  2.0113027653702126e+01  2.0881176035148311e+01  2.0136126049822476e+01  2.5939317545151777e+01  2.5165407989427287e+01  2.5910812860757723e+01  3.6461537134429868e+01  3.5692996528107408e+01  3.6438160233365409e+01  3.4494847195659084e+01  3.4709570306389658e+01  3.5011030675858521e+01  2.3908998298023334e+01  2.4150259458168932e+01  2.4451384706424466e+01  2.2121996411562041e+01  2.1885739632925386e+01  2.1584370785040740e+01  3.8429023100660778e+01  3.8650252556978160e+01  3.8951638988309966e+01  1.8161217217507943e+01  1.7932217033659775e+01  1.7631061407359965e+01  1.2080208289569187e+01  1.2316580220822180e+01  1.2617721364163032e+01  4.3601706270160294e+00  4.5100869400930312e+00  4.8116478270857135e+00  1.0283884027730192e+01  1.0047510072195321e+01  9.7463839993563770e+00  5.5544590066181293e+01  5.5766902809856859e+01  5.6068467278092314e+01  6.5561560917260394e+01  6.5325273798553425e+01  6.5023869626906077e+01  6.1600416759810969e+01  6.1371316973433665e+01  6.1070254609232393e+01  5.4043041647541720e+01  5.4349993579784545e+01  7.3045262693065069e+01  7.2369203040830726e+01  7.2715188101874745e+01  7.3045005349710962e+01  7.2446826997343052e+01  7.2715848995684951e+01  7.3695723395171299e+01  7.3373129680327665e+01  7.3695894646475637e+01  7.3373266405280361e+01  1.8613509298501882e+00  2.7168798946586428e+00  2.0588893595626674e+00  2.2563504063743216e+00  2.5191603985370841e+00  7.7965991623554444e+01  7.7969469995632963e+01  7.8472722297059804e+01  7.7972893930062597e+01  7.8469327881211271e+01  7.8972654381775953e+01  7.7965951017704739e+01  7.7969478417160232e+01  7.8472771716674487e+01  7.8469325841531074e+01  7.8972654381775953e+01  7.5922187432430661e+01  7.5134312411687858e+01  7.5473433583430719e+01  7.5922251645384875e+01  7.5134430475835458e+01  7.5473545450391157e+01  1.0191045886406114e+00  1.0222945776802077e+00  5.1289092468821718e-01  1.0256756059291186e+00  5.0956176574369472e-01  0.0000000000000000e+00  2.9395874100859416e+01  2.8906933545991727e+01  2.9492890552031842e+01  2.8810139377028793e+01  2.9299546612296641e+01  4.3874753861475526e+01  4.3385866438492727e+01  4.3971057695465532e+01  4.3289685422959018e+01  4.3779053296368808e+01  5.2190258491417254e+01  5.2679225170424388e+01  5.2093212973337657e+01  5.2776098210703239e+01  5.2286654101510827e+01  7.0714033289668393e+01  7.1203516498555658e+01  7.1017814233158518e+01  7.0528876878859791e+01  7.0342870804444004e+01  1.0065765624138525e+00  1.0160350754443370e+00  5.1294725318026524e-01  5.0328140227002183e-01  0.0000000000000000e+00  2.7260791174652425e+01  2.7790611654045129e+01  2.7443267709672789e+01  4.1741134726078386e+01  4.2270850153050198e+01  4.1923696852295983e+01  5.4309584053864185e+01  5.3787462112753545e+01  5.4134643988710771e+01  7.2369408921745546e+01  7.3045281659358025e+01  7.3045307706629103e+01  7.3695830401904104e+01  7.3045252503932687e+01  7.3695898468836845e+01  7.2446854313689300e+01  5.3981514377089077e+01  5.4678518168620606e+01  5.4617026081146108e+01  2.8049777153362250e+01  2.8185185214768399e+01  2.8771529633254069e+01  2.8184924871163549e+01  2.8906730940737294e+01  4.2439924761998391e+01  4.2620028761978446e+01  4.3205654559493588e+01  4.2664631659520843e+01  4.3430264919604674e+01  7.1476622330703506e+01  7.1584937590636500e+01  7.0909640575619207e+01  5.3536325446467650e+01  5.3441070621884926e+01  5.4076738091085829e+01  5.2719276414511562e+01  5.2814576710717994e+01  5.3401017552856516e+01  7.4228778047031454e+01  7.4287694091519469e+01  7.3637031812204540e+01  7.4287622314934694e+01  7.4864007119936858e+01  7.4805072872711662e+01  7.5381210900428783e+01  7.1662613957739481e+01  7.2260918217488424e+01  7.4864070729386512e+01  2.9470138558196421e+01  2.8895292635782344e+01  2.9481191995327634e+01  4.3948972626690697e+01  4.3419287873690948e+01  4.3959793925685204e+01  5.2116056032913669e+01  5.2730744739069742e+01  5.2104952492809367e+01  2.3464873166169543e+01  2.2570997561968518e+01  1.1631310040834805e+01  3.7691198840375613e+00  1.0732737512403553e+01  6.6010718721475413e+01  7.1031773290123169e+01  7.0464949482848951e+01  7.0586723524063217e+01  7.1217570767996662e+01  2.3020222428411412e+01  2.2571075406378785e+01  2.3020315460327353e+01  2.3464623910282970e+01  1.1182042082299461e+01  1.0732935496699930e+01  1.1182025421052346e+01  3.2890755023852560e+00  3.8246672378426565e+00  3.2333856097921165e+00  1.1631150836384455e+01  6.6459843771914919e+01  6.6010665766565893e+01  6.6460068383248128e+01  2.6831132364599810e+01  2.7655503522175326e+01  2.7440345846595257e+01  2.7046179949392599e+01  4.1311359050088122e+01  4.2090768722897785e+01  4.1875573897001004e+01  4.1526433919371300e+01  5.3922709013710609e+01  5.4463072533590463e+01  5.5142434818069027e+01  5.5080896780732786e+01  7.7150301417017886e+01  7.6285277409242937e+01  7.6899531417260633e+01  7.6648825232105139e+01  7.6536398136968558e+01  7.7150329379769602e+01  7.6285308015246059e+01  7.6899549374960515e+01  7.6536425024254996e+01  7.5651410993444287e+01  7.5651355321631314e+01  1.8867440184197861e+01  1.8285142243995516e+01  1.8641465711378199e+01  6.2306631866665235e+01  6.1724250962538257e+01  6.2080605124965267e+01  6.6904960402943914e+01  4.7587984090545987e+01  4.8478897229009533e+01  6.6904575744235885e+01  4.8032688440660394e+01  4.7588196221924349e+01  4.8032667812535571e+01  4.8478728846725708e+01  3.3553247758217537e+01  3.4185905181479086e+01  3.4024082017861353e+01  3.3715044560404202e+01  3.9474333571245531e+01  3.8817800910666186e+01  3.9536100857710586e+01  2.1046384380754663e+01  2.0984744651357488e+01  2.1702281209204124e+01  2.4994583129195266e+01  2.4338624440211206e+01  2.5056274995575080e+01  3.5527561896059836e+01  3.4870722679956103e+01  3.5589304373653050e+01  5.2633437223393438e+00  4.6069858706046602e+00  5.3250147794693952e+00  9.2076938320203805e+00  9.1460756589094778e+00  9.8637439693396001e+00  1.3156134466110673e+01  1.2500147833357628e+01  1.3217787802167107e+01  1.7100371055914152e+01  1.7038672806109115e+01  1.7756613677584827e+01  6.0539267810501961e+01  6.0477536705533538e+01  6.1195608131987605e+01  6.4485816470793935e+01  6.4424169447187751e+01  6.5141790524166524e+01  5.6592592666064249e+01  5.5936187147372948e+01  5.6654321739562029e+01  2.7607909466804724e+01  2.6998600409151511e+01  2.7165647966839970e+01  4.2048024762802903e+01  4.1483768989962996e+01  4.1655924124317821e+01  3.7363232941263171e+01  3.6936956366016489e+01  3.7412383672498713e+01  3.6887782781992733e+01  3.7314141076378519e+01  5.8517674078956880e+01  5.8046442507701940e+01  5.8566106080282523e+01  5.7997823351984110e+01  5.8469157428485168e+01  5.8614561228399801e+01  5.9085724934460778e+01  5.9134336749245527e+01  5.8663120543074591e+01  3.8121848585067127e+01  3.7613437503246423e+01  3.7920707738156096e+01  2.7743229187197230e+01  4.2272713241977002e+01  2.7726482029696258e+00  2.9126585393194947e+01  4.3606068965352158e+01  7.0886972122617806e+01  5.2459675521933754e+01  2.7396279810833050e+01  4.1881646457893495e+01  3.2862751747138851e+01  3.3020739330031049e+01  3.3395301226084200e+01  4.5121281012931689e+01  4.5886945643841344e+01  4.5179297945921441e+01  6.9371245231675132e+01  6.8605539017200286e+01  6.9313424506938659e+01  5.0928604600643347e+01  5.0170697174913911e+01  5.0878361552188316e+01  3.0657656512983923e+01  3.1415633072821908e+01  3.0707794747240463e+01  1.5128124562489731e+01  1.5647521553065069e+01  1.5128099784642709e+01  1.5647556385794996e+01  1.5128147743197669e+01  1.4608710896377181e+01  1.4608730471459976e+01  7.2357797674866422e+00  7.7552556121606768e+00  7.2358735997805947e+00  7.7551801589198046e+00  7.2357083796311628e+00  6.7163480107934292e+00  6.7162588088601076e+00  7.6015223273959307e+01  3.1579357441927193e+01  3.1524374230292079e+01  3.2235926311888768e+01  6.8434429450721964e+01  6.7778472253064621e+01  6.8489358585232040e+01  5.0007385773398866e+01  4.9351265393016028e+01  5.0062294435466754e+01  4.6057672058050308e+01  4.6002804136040957e+01  4.6713862948641953e+01  3.8216035908970369e+01  3.7814210281575647e+01  3.7765104057493801e+01  5.9343775123289781e+01  5.8954856546953962e+01  5.8906562658322720e+01  5.7788599233199832e+01  5.8177406444854370e+01  5.8225787085517062e+01  1.9170520587129943e+01  1.8514271592497252e+01  1.8665848107488959e+01  1.9019032382058139e+01  6.2609829323736989e+01  6.1953451850297725e+01  6.2105107677761765e+01  6.2458275409430392e+01  0.0000000000000000e+00  0.0000000000000000e+00  5.1286512366433723e-01  7.8972654381775953e+01  7.8972654381775953e+01  7.8472764454348010e+01  7.8972654381775953e+01  0.0000000000000000e+00  2.9211118826739629e+01  4.3689391168452183e+01  7.0826697822599456e+01  5.2376514003782567e+01  7.7558245777223959e+01  7.7561504377960887e+01  7.7558197169835879e+01  7.7561520557672083e+01  4.0050680826263170e+00  3.3898340873444730e+00  3.9772368464983621e+00  3.9515077146612265e+00  3.4182794857961589e+00  2.8312098535139483e+00  3.0063893275763235e+01  3.0075271064602227e+01  4.4535137665480050e+01  4.4546177769376953e+01  5.1522337390355666e+01  5.1510864699593313e+01  6.9978790755654913e+01  6.9857164824677469e+01  2.6552236293802547e+01  2.6385269258337008e+01  4.1037502500447459e+01  4.0865524004410844e+01  2.6277643006317599e+00  2.7304906743250226e+00  3.2892445143809188e+00  1.4401326702247188e+00  1.4435827100991390e+00  1.9490416913506394e+01  1.9641677143227536e+01  6.2929688366830270e+01  6.3080992762667499e+01  1.7959052194789338e+00  1.4011870646941653e+00  1.4108160711296143e+00  1.9299962560327600e+01  1.9922955522982615e+01  1.9735251501198217e+01  6.2739194014374178e+01  6.3362263140841179e+01  6.3174531714783647e+01  3.0379471934091381e+01  2.9936183016955177e+01  2.9839481127107899e+01  4.4875045192854984e+01  4.4423042092028773e+01  4.4327008712940696e+01  5.1190691270604511e+01  5.1641966635221650e+01  5.1738710521945322e+01  6.9658299759692994e+01  7.0000631940086393e+01  7.0186110553697858e+01  2.6736948774679824e+01  2.6123817654841737e+01  2.6305825035129729e+01  4.1222347662652751e+01  4.0604121448197503e+01  4.0786506900124202e+01  2.5751529771437225e+00  1.9174622562172943e+00  1.9733850713474166e+00  6.3168833074943485e+01  6.2483595264902227e+01  6.2204078050990944e+01  6.1798409918528684e+01  6.2889354082550000e+01  1.1182063385679655e+01  1.1539576464819701e+01  1.1897035448299683e+01  1.0824532031766140e+01  1.0467098101747302e+01  2.3663334734462794e+01  2.2984041632991126e+01  2.2662517797656189e+01  2.2304874606180036e+01  2.3341814437615596e+01  1.4475429581457396e+01  1.5124182212116549e+01  1.5450502395477717e+01  1.5772933134030117e+01  1.4801774066778551e+01  6.5833779440378830e+00  7.2321504280809679e+00  7.5583926122866165e+00  7.8809328171390183e+00  6.9096325227110293e+00  1.9729421568593310e+01  1.8764724466305509e+01  1.9449988645998559e+01  1.9044181784377521e+01  1.8358961568235213e+01  2.6143393828491178e+01  2.6487400343696134e+01  2.6701910212491502e+01  4.0667118658400490e+01  4.0989380158414782e+01  4.1203966551104394e+01  5.5423614626457244e+01  5.5020205410970242e+01  5.4866780567524557e+01  3.2768579102545353e+01  3.3161031021929027e+01  3.3322550032925676e+01  3.6784820806645250e+01  3.7098775348508120e+01  3.7299593450138019e+01  3.3753307599798227e+01  3.3911067221312983e+01  3.4269168954503087e+01  4.7349154323020883e+01  4.8386159202806155e+01  4.7690865071276868e+01  4.8044348176581835e+01  4.8739500154506437e+01  6.7146742702502806e+01  6.6445504848080787e+01  6.6102084405184556e+01  6.5744377455992449e+01  6.6803345485712214e+01  2.5438830538660717e+00  3.0602892569632285e+00  2.5528544598551068e+01  2.5713142799918277e+01  3.6056289114564635e+01  3.6652115560586573e+01  3.6246937135018428e+01  3.6841519648807264e+01  1.3684360096933316e+01  1.4279765830569488e+01  1.3874748049735615e+01  1.4468349596139728e+01  5.7121315760641785e+01  5.7717002007998389e+01  5.7311633112289933e+01  5.7904862877736463e+01  1.6571955208869703e+01  1.5976558379873138e+01  1.6381619467786678e+01  1.5787985224665977e+01  6.3957529248480277e+01  6.3767413304087150e+01  6.0010631311701040e+01  5.9415104581667364e+01  5.9820373446598254e+01  5.9227299357981529e+01  8.6796094124394365e+00  8.0841361972863570e+00  8.4891452290971756e+00  7.8955205347706476e+00  5.7917191793495038e+00  6.3872090535867558e+00  5.9821072725791096e+00  6.5757962677549884e+00  2.0518150985978146e+01  2.0328062343416278e+01  4.0008670323477645e+01  4.0193315476679516e+01  4.5346051174350350e+01  4.4932066734191643e+01  4.4745035697120514e+01  4.5534583160685571e+01  5.0719049452524075e+01  5.1125360507686921e+01  5.1319931668398468e+01  5.0522971251923167e+01  6.9145932058913388e+01  6.9560129192243281e+01  6.9745794346227015e+01  6.8957776409301815e