<?xml version="1.0"?>
<VTKFile type="UnstructuredGrid"  version="0.1"  >
<UnstructuredGrid>
<Piece  NumberOfPoints="2690" NumberOfCells="4864">
<Points>
<DataArray  type="Float64"  NumberOfComponents="3"  format="ascii">-5.05015792667775 22.01100197923456 0  -5.644391219541727 21.27360791998713 0  -5.049161715192637 21.51190372608638 0  -5.048003059759576 21.01106457610135 0  -5.645375606018898 21.77380732888656 0  -6.240611301004836 21.53483692475842 0  -9 21.99999999996945 0  -8.404198173383564 21.26479907569322 0  -9 21.49999999997139 0  -9 20.99999999997333 0  -8.404373083948924 21.76478622039035 0  -7.808581394327549 21.52954370263183 0  -9 32.9999999999446 0  -8.408033393184153 32.26476332388909 0  -9 32.49999999994358 0  -9 31.99999999994255 0  -8.408208250052253 32.76476660228768 0  -7.816250864845178 32.5295071943946 0  -5.075609534637165 33.01189582045886 0  -5.584150172136385 32.30812844567971 0  -5.074566940918521 32.51347436772565 0  -5.073345100261646 32.0115133868098 0  -5.585166428168829 32.80843233657632 0  -6.094741292962087 32.60326455664063 0  -5.124781712825958 54.01134993417332 0  -5.710478529221592 54.74832127303473 0  -5.709508519572084 54.24879405171745 0  -6.294105303207275 54.48457390704839 0  -5.125906214195197 54.51218176670177 0  -5.126928790442554 55.01146929798659 0  -9 54.99999999998974 0  -8.486538876962264 54.2980559239825 0  -9 54.49999999998872 0  -9 53.99999999998769 0  -8.48669186952066 54.79800905847772 0  -7.973262152740926 54.5960331545128 0  -9 39.99999999995897 0  -8.411002751891477 40.73972777710748 0  -8.410827876605884 40.23973014202941 0  -7.821822641258725 40.47942758292629 0  -9 40.49999999996 0  -9 40.99999999996102 0  -5.094200710519626 41.0105327001549 0  -5.655705712777541 40.27915246642848 0  -5.09316826186611 40.51223558684233 0  -5.092037705115522 40.01185888478372 0  -5.656692175500487 40.77897379484673 0  -6.219233182139321 40.54549228446905 0  -9 55.99999999999179 0  -8.440607428505144 56.74538973356375 0  -8.440456067253567 56.24536021168865 0  -7.881070650042658 56.49071962413964 0  -9 56.49999999999282 0  -9 56.99999999999384 0  -5.129459811366989 56.01084451867935 0  -5.69041771281967 56.75420253294168 0  -5.68945802600132 56.25415675656061 0  -6.249292875733775 56.49610532539442 0  -5.130654565549636 56.51254600830508 0  -5.13167349983288 57.01150233855809 0  -7.476149896596785 43.00622866419019 0  -6.649403593311717 43.11789951617003 0  -7.243895441818202 43.34462234520601 0  -7.011732254359353 43.68302488288461 0  -6.881566713143728 42.77943795383997 0  -6.286824448796385 42.55264978598083 0  -6.631235940931587 49.01175344254791 0  -7.455103782961203 48.89942358239976 0  -6.862572902412588 48.673276609048 0  -7.094010687498251 48.33476478458073 0  -7.223674224949976 49.23787684705123 0  -7.815946915675169 49.46408451057308 0  -6.626986104894114 46.01104067334093 0  -7.452334062875254 45.89896375579243 0  -6.858750876961087 45.67243585864868 0  -7.090612039605171 45.3338879282522 0  -7.220479544030474 46.23750368414655 0  -7.813813326691586 46.4639251959123 0  -6.572108796340222 7.011434602482283 0  -7.416547192531501 6.899273710543389 0  -6.809246952147373 6.672951544709693 0  -7.046481800519668 6.334471233356602 0  -7.179319050874532 7.237752424324897 0  -7.786370751089486 7.464061721191699 0  -7.464358991716074 30.00615835112262 0  -6.631211395809226 30.11774358278555 0  -7.230308334376194 30.34438380997407 0  -6.996350971413239 30.68257134573432 0  -6.86517177060644 29.7794815362234 0  -6.265822298127015 29.55286537992267 0  -6.568044497175499 4.010887685704327 0  -7.4141076471965 4.115274353072672 0  -6.806407670925527 4.347255637111457 0  -7.044686713074902 4.683587593824664 0  -7.175834215990693 3.778919976484695 0  -7.783760543925491 3.547023983384333 0  -6.576262576540317 10.01153393342504 0  -7.419447544448762 10.11570636502529 0  -6.813834085684936 10.34775764446131 0  -7.051318299876725 10.68398175639765 0  -7.181956237510091 9.779493311285032 0  -7.787811139699925 9.547439385288703 0  -6.580426896846819 13.01163434757942 0  -7.421966516505279 12.89943459565026 0  -6.816745968371231 12.67315506358137 0  -7.053161133028908 12.33467950557737 0  -7.185555035862325 13.2379271162136 0  -7.790527713060055 13.4641871486861 0  -6.584612026415141 16.01181243275584 0  -7.42469973004181 15.89948661508382 0  -6.820520062565816 15.67334616499745 0  -7.056526196536097 15.33485131935719 0  -7.1887011744039 16.23793902335015 0  -7.792628697301348 16.46413223193109 0  -6.588875339222733 19.01057885044708 0  -7.42768092793474 19.1149607357647 0  -6.825239205859127 19.34661353576781 0  -7.061504461047928 19.68271488346936 0  -7.191407804779907 18.77882535979106 0  -7.794107703054462 18.54704121735025 0  -6.600149352572974 27.01018343582928 0  -7.435033885387207 27.11471301839519 0  -6.835397724567238 27.34644107009147 0  -7.070555253536311 27.68271462133943 0  -7.199872980608392 26.77837692568685 0  -7.799755269447687 26.54666293278848 0  -8.277077213027853 19.09701763763142 0  -8.035632086388219 18.82201200708328 0  -8.396957008128684 18.27355136947249 0  -8.638421090319458 18.5485570544903 0  -9 17.99999999998495 0  -8.280459013496875 27.09689301225834 0  -8.04014575201413 26.82177935168001 0  -8.399782758760839 26.27332133169702 0  -8.640114440970118 26.54844444232439 0  -9 25.99999999995395 0  -8.27571930719566 15.90960357897385 0  -8.034134878061908 16.18687416794525 0  -8.396409747146642 16.73204118078081 0  -8.637975234361987 16.45478367534416 0  -9 16.99999999998883 0  -5.787269922335137 30.10735626095518 0  -6.026504410118672 29.83009737464747 0  -5.666222482300565 29.28452101534499 0  -5.426969516527651 29.56229764261895 0  -5.066237418284611 29.01098717000488 0  -8.274461616031493 12.90959915966944 0  -8.032456033267227 13.18689084141801 0  -8.395357585302417 13.7320983720924 0  -8.637345019378079 13.45480491747259 0  -9 13.99999999999401 0  -8.27329177607152 10.09736698232467 0  -8.030589431957683 9.822403639743815 0  -8.393811501693939 9.273717880719619 0  -8.636532667553446 9.548681301310531 0  -9 8.99999999999857 0  -8.270844715390192 4.097162509450764 0  -8.027337117248107 3.822102425055601 0  -8.391804322246029 3.273496026707691 0  -8.635321858133253 3.54855842666574 0  -9 2.999999999998668 0  -8.271971127728763 6.909518653687712 0  -8.029132504113742 7.186788000354778 0  -8.393278682150886 7.732034141507095 0  -8.636098782210492 7.454766038027556 0  -9 7.999999999999485 0  -8.288424725644104 45.90937583996637 0  -8.051080154650808 46.18663770494443 0  -8.407001619619171 46.7319826359592 0  -8.644327361044892 46.45472190357243 0  -9 46.99999999997333 0  -8.289698557515937 48.90956830645342 0  -8.052782834486651 49.18683261341845 0  -8.408070413492524 49.73201638645298 0  -8.644966953633402 49.45476812723726 0  -9 49.99999999997949 0  -5.811958674248697 43.10749012818177 0  -6.049349067085575 42.83006558590854 0  -5.691831283106427 42.28415246029331 0  -5.454425839853886 42.56215523446782 0  -5.096438752893322 42.01054080341844 0  -5.770933519730229 23.92990628486639 0  -6.016758738345623 24.19645397706937 0  -5.659791449324778 24.73959340935184 0  -6.262501287020533 24.46303800144101 0  -5.414023405838408 24.47356708280448 0  -5.057193678806264 25.010936957842 0  -8.295672036683749 52.08675513792999 0  -8.054222162114188 51.82014075629678 0  -8.406247105110987 51.276809142313 0  -7.812693332234515 51.55355745423066 0  -8.647719201559418 51.54342286150442 0  -9 50.99999999998153 0  -5.797785331534353 38.09711075523891 0  -6.040626704983811 37.82811205097706 0  -5.684372194864631 37.28743108741752 0  -6.283549615298304 37.559151469193 0  -5.441509999107544 37.55705490919745 0  -5.084772375829273 37.01005118882752 0  -5.791765233740776 34.92980000294377 0  -6.036013801154434 35.19626898580738 0  -5.681366806951292 35.73927133276718 0  -6.280179894547686 35.46277284581954 0  -5.437168194880462 35.47340133930398 0  -5.082676678948387 36.01044067477452 0  -7.916246260369233 50.50528413979671 0  -7.864452732881424 51.02943469094943 0  -8.458205247661375 50.75261307456773 0  -6.176820684644313 36.51086295059729 0  -6.230197495269938 37.03493875543472 0  -5.63083059225211 36.76240595029583 0  -6.228485662198387 35.98674676864474 0  -5.629838365031114 36.26228618112639 0  -6.02039167937382 25.27190608189166 0  -6.141422418854377 24.86749600641112 0  -5.538850022916828 25.1434300046537 0  -8.041820882818831 25.74976702507623 0  -7.920759875661252 26.14821461082031 0  -8.520945645077131 25.87488531106528 0  -6.982925474837566 34.38392372698426 0  -6.631438483333807 34.92341061533944 0  -6.88365637156697 35.24687758832365 0  -7.23515714766703 34.70748132278351 0  -7.487290991007341 35.03101941991574 0  -7.116609299979426 52.63209932514354 0  -7.464535353666776 52.09288702686345 0  -7.214934462007633 51.76959047832595 0  -6.867020150827865 52.30883625486197 0  -6.617331016312997 51.98560488585732 0  -6.988008490778159 38.63205026638936 0  -6.635893017176451 38.09566414761288 0  -6.886820624143333 37.77004754452677 0  -7.23892420239666 38.30652993486484 0  -7.489937185926219 37.98098608921149 0  -6.969833866804829 23.38398257589158 0  -6.616054795111254 23.92354857952683 0  -6.869902866332665 24.24706525445299 0  -7.223696759853131 23.70757604960017 0  -7.477462609562368 24.03113868458302 0  -7.895023212159048 17.50515349167711 0  -7.844548921528491 18.0261137657691 0  -8.447592898113928 17.7525467898936 0  -7.843841104751896 16.98464887226794 0  -8.447430403469243 17.25259330895201 0  -7.889277871231026 8.505273166219364 0  -7.838529594428003 9.026357319817802 0  -8.444717590733529 8.752637760055297 0  -7.932882160077366 2.420178435858357 0  -7.85828940668676 2.983587281771597 0  -8.466515490927758 2.710104688619754 0  -7.837839635636716 7.984670330345414 0  -8.444559320090553 8.252632871905293 0  -7.866112373824671 49.9846908441951 0  -8.458040436114006 50.25265913096653 0  -6.09772480151836 41.60376758784042 0  -6.192300610380423 42.0782559517111
[...]
<PointData  Scalars="f_29"> 
<DataArray  type="Float64"  Name="f_29"  format="ascii">3.1827866476776262e+02  3.0737034110267018e+02  3.1086638764275278e+02  3.0346605834918194e+02  3.1473802214868306e+02  3.1122837485047108e+02  3.1821109002025418e+02  3.0730313795375582e+02  3.1079745281940404e+02  3.0339409634506183e+02  3.1467126258620925e+02  3.1118811043931015e+02  4.8095232377224249e+02  4.6988580798484901e+02  4.7342920487015664e+02  4.6591824891605677e+02  4.7736177982313495e+02  4.7382702999656925e+02  4.8098608542398421e+02  4.7046269016640053e+02  4.7350050707392472e+02  4.6603211055931797e+02  4.7792254817958491e+02  4.7487754890742815e+02  7.9818652273163036e+02  8.0959820647193283e+02  8.0190277934469793e+02  8.0554840276994264e+02  8.0591319848721957e+02  8.1367301606328510e+02  8.1357671842705975e+02  8.0275354832844562e+02  8.0587810684241117e+02  7.9817847026476295e+02  8.1044108187243182e+02  8.0732208425887870e+02  5.8560662509073848e+02  5.9682007757953409e+02  5.8926514907315448e+02  5.9286729354783313e+02  5.9320990152840318e+02  6.0080359388716204e+02  6.0086715113086984e+02  5.8978474101475888e+02  5.9328703350880619e+02  5.8569542176976870e+02  5.9734631126529393e+02  5.9383116777138821e+02  8.2890391663776813e+02  8.4040883467324466e+02  8.3270202908062743e+02  8.3645887913847685e+02  8.3662249830357723e+02  8.4438325333512319e+02  8.2897691185938493e+02  8.4046290109922802e+02  8.3275951962405770e+02  8.3649395830651065e+02  8.3668886190464809e+02  8.4445119701941178e+02  6.3096447791268122e+02  6.3261080055205935e+02  6.3606089627116535e+02  6.4116116105529750e+02  6.2751759844679862e+02  6.2407222283815224e+02  7.2186495162392907e+02  7.2020043665653350e+02  7.1672992313263012e+02  7.1159734453933459e+02  7.2533833057014738e+02  7.2880810704832709e+02  6.7634232582953598e+02  6.7468044970717835e+02  6.7123064672807288e+02  6.6611938749206047e+02  6.7979539433063837e+02  6.8324678147993563e+02  1.0017896097562176e+02  9.8599373758340974e+01  9.5324679265333813e+01  9.0472016759777176e+01  1.0345663850344127e+02  1.0673122233657008e+02  4.3624780409159212e+02  4.3786798553843261e+02  4.4126139519217759e+02  4.4627972548004232e+02  4.3286000613145308e+02  4.2947262325797232e+02  5.7140685935077933e+01  5.8673236992056268e+01  6.1966632531161075e+01  6.6793765363072211e+01  5.3849933359474100e+01  5.0560278315365956e+01  1.4340443942384618e+02  1.4494836240994297e+02  1.4827090852289413e+02  1.5313803914235791e+02  1.4008422725008242e+02  1.3676691356962652e+02  1.8679827989325241e+02  1.8520568154852009e+02  1.8190427396425272e+02  1.7701186874678655e+02  1.9010206275965353e+02  1.9340345440624279e+02  2.3036667854948595e+02  2.2877215254416816e+02  2.2545183286738123e+02  2.2053939036356178e+02  2.3368972858437621e+02  2.3700910129936631e+02  2.7414722742532354e+02  2.7572136781738561e+02  2.7908414564083631e+02  2.8402442531988169e+02  2.7078988176887003e+02  2.6743209439421429e+02  3.9183181165550297e+02  3.9342049972598835e+02  3.9681641923389282e+02  4.0180337896857674e+02  3.8844016192283499e+02  3.8504664793491855e+02  2.7549458742344291e+02  2.7146463485949499e+02  2.6347638881555588e+02  2.6749621996456909e+02  2.5954563422487001e+02  3.9319393721367470e+02  3.8912053685647089e+02  3.8104376392076472e+02  3.8510729080473953e+02  3.7705752257201078e+02  2.2895495474313043e+02  2.3298108916937537e+02  2.4092629432881327e+02  2.3689571730601938e+02  2.4480367315488417e+02  4.3765609242679403e+02  4.3356630243871007e+02  4.2548334720515271e+02  4.2954484110640067e+02  4.2151592976403435e+02  1.8538459498395611e+02  1.8939307621844449e+02  1.9730004930012947e+02  1.9329615482979341e+02  2.0117870175973104e+02  1.4472202978321059e+02  1.4074549075599882e+02  1.3286036224413593e+02  1.3682719116047249e+02  1.2897954297610011e+02  5.8450938517360228e+01  5.4505941166808242e+01  4.6680737555185054e+01  5.0624841632169250e+01  4.2840350466899309e+01  9.8775001094578258e+01  1.0275230678825167e+02  1.1059708796649845e+02  1.0661614599678509e+02  1.1442363852641402e+02  6.7487092009518005e+02  6.7905782060751392e+02  6.8732064065633529e+02  6.8313809015380775e+02  6.9137639892954667e+02  7.2039330355929485e+02  7.2459974290760749e+02  7.3290279253465576e+02  7.2869190592934547e+02  7.3695836800535506e+02  6.3239852953654179e+02  6.2823736549423143e+02  6.2001704521582712e+02  6.2414918684054510e+02  6.1599034358767642e+02  3.4635744192087526e+02  3.5030156045613813e+02  3.5828924378551591e+02  3.5424494993213591e+02  3.5432881095206534e+02  3.6232042278946210e+02  7.6886258977215664e+02  7.6477917054520913e+02  7.5651155710255659e+02  7.6069422321396212e+02  7.6058433236443011e+02  7.5235366666800655e+02  5.5693547683516147e+02  5.5292562996296601e+02  5.4484046858003410e+02  5.4891339449824716e+02  5.4881717378295446e+02  5.4079864997990330e+02  5.0950596973535750e+02  5.1351108760617797e+02  5.2161566533126063e+02  5.1751579393726252e+02  5.1758645815929515e+02  5.2568420734459482e+02  7.4468693470236508e+02  7.5269253118671304e+02  7.4849312822760805e+02  5.3322635885930958e+02  5.4107127065533348e+02  5.3699040276362439e+02  5.2536413796464979e+02  5.2947820904649654e+02  3.6617553532304714e+02  3.6020661445490225e+02  3.6427394526447671e+02  3.7329199415640682e+02  3.7917005186657093e+02  3.7515450601785233e+02  5.0144165065544894e+02  5.0947442345544619e+02  5.1432219898547089e+02  5.0628436757569585e+02  5.1112840553910632e+02  7.7714823658651687e+02  7.6891602607417963e+02  7.6396094520954182e+02  7.7218820532707764e+02  7.6723069963993919e+02  5.6503170282320286e+02  5.5696449625152911e+02  5.5209526444515711e+02  5.6015671016942827e+02  5.5528304100027458e+02  3.3840304309749013e+02  3.4631928989329566e+02  3.5109298237431801e+02  3.4317223439506989e+02  3.4794187482977856e+02  2.5220329076098733e+02  2.5981937225323611e+02  2.5584688032946877e+02  2.4460004361105612e+02  2.4852712331171662e+02  1.2173356809202981e+02  1.2925243731349451e+02  1.2532856099623687e+02  3.4446179498492441e+01  4.2505819511191483e+01  3.8621517723372691e+01  1.1422653708709323e+02  1.1810186093308957e+02  7.3674130656706268e+02  7.4084590973943784e+02  6.0978633432054892e+02  6.1692904739369214e+02  6.1287069356223128e+02  3.5775668617966937e+02  3.5600233739348880e+02  3.5284703036561808e+02  7.5501737037356327e+02  7.5785537933480236e+02  7.6112311928392637e+02  5.4334751244075414e+02  5.4613081729175042e+02  5.4931295682203893e+02  5.2308903779101161e+02  5.2030405579884950e+02  5.1710620079129114e+02  4.1758613808417925e+02  4.2352904475324897e+02  4.1953470030095536e+02  6.4171184439808246e+02  6.3288321280112382e+02  6.4143814763138744e+02  7.1104241835688890e+02  7.1992097333974186e+02  7.1132003526542417e+02  6.6556017781020466e+02  6.7440047100205936e+02  6.6584001446946991e+02  8.9940306388426905e+01  9.8331824583387657e+01  9.0207043392535752e+01  6.7281512681744587e+01  5.8918623762204042e+01  6.7038877994373394e+01  4.4693806876202387e+02  4.3819533672513808e+02  4.4661159886921911e+02  1.5362804992307659e+02  1.4519521229968603e+02  1.5338428809825015e+02  1.7647583810698387e+02  1.8493629986835336e+02  1.7674466660120524e+02  2.2000669910076937e+02  2.2850385285165527e+02  2.2027322914908262e+02  2.8464371970347440e+02  2.7603349783305600e+02  2.8433716267428235e+02  4.0231240719065352e+02  3.9367596722179462e+02  4.0205931997690249e+02  3.8024215368512745e+02  3.8264394271107284e+02  3.8603651901539757e+02  2.6208658347620019e+02  2.6475910136518917e+02  2.6811588616505787e+02  2.4226413229692895e+02  2.3963767728702805e+02  2.3631404505517605e+02  4.2447667845974479e+02  4.2697565725717050e+02  4.3036052350251720e+02  1.9847542285389628e+02  1.9594001341180891e+02  1.9263544590061321e+02  1.3159986433451343e+02  1.3418317819642630e+02  1.3750084915689584e+02  4.7314790422923501e+01  4.8937555471948194e+01  5.2227214171622464e+01  1.1192369065532959e+02  1.0932849860975234e+02  1.0604952694308973e+02  6.1897004879579583e+02  6.2152149255645213e+02  6.2496649583333499e+02  7.3429784376930695e+02  7.3155407161862058e+02  7.2807990062648696e+02  6.8854326553693863e+02  6.8589552761518939e+02  6.8244110288685977e+02  6.0180900131550516e+02  6.0532492209528766e+02  8.2130681735160795e+02  8.1342962256156818e+02  8.1745697520300916e+02  8.2126720232028731e+02  8.1429417754516294e+02  8.1741781839060025e+02  8.2886262411951805e+02  8.2508380645633349e+02  8.2890082927910760e+02  8.2513883922793639e+02  2.0167434166114653e+01  2.9453911068338481e+01  2.2315405370099654e+01  2.4461004047171418e+01  2.7302078073299018e+01  8.7877571344524301e+02  8.7882092018022581e+02  8.8471995125281887e+02  8.7886394667038576e+02  8.8467771848758309e+02  8.9058214572363283e+02  8.7877866757942809e+02  8.7882388253502768e+02  8.8472192522387195e+02  8.8467979084841841e+02  8.9058214572363283e+02  8.5486291150738600e+02  8.4565881957782290e+02  8.4960820078748202e+02  8.5488664324613399e+02  8.4569223158635327e+02  8.4965235087545273e+02  1.1033936493456501e+01  1.1073867657084350e+01  5.5556082203072892e+00  1.1113012230137528e+01  5.5165646543045002e+00  0.0000000000000000e+00  3.2318424650170812e+02  3.1773519724166317e+02  3.2428076681858272e+02  3.1664007956183929e+02  3.2209552303482701e+02  4.8599117862366757e+02  4.8046148830040858e+02  4.8709439854964972e+02  4.7935914233697031e+02  4.8489486270841894e+02  5.8057932678788143e+02  5.8617410017125587e+02  5.7948332617165181e+02  5.8726687257964250e+02  5.8166655084405704e+02  7.9414317685338415e+02  7.9984811341541479e+02  7.9767154329790912e+02  7.9197846292163774e+02  7.8980266374765938e+02  1.0901027703088198e+01  1.1007374535427902e+01  5.5564228374038631e+00  5.4489518180617980e+00  0.0000000000000000e+00  2.9941472733794740e+02  3.0532338158288019e+02  3.0145794912724347e+02  4.6183753286910240e+02  4.6783210158293798e+02  4.6388975064894851e+02  6.0480816472950096e+02  5.9883679014255540e+02  6.0279420236821625e+02  8.1342265387576890e+02  8.2130393660755817e+02  8.2129514101093366e+02  8.2887533723884712e+02  8.2128382293887751e+02  8.2889255455211037e+02  8.1430668819617563e+02  6.0109225716734659e+02  6.0906800911183950e+02  6.0835209491203364e+02  3.0818798681876189e+02  3.0968673255620098e+02  3.1623637223694658e+02  3.0970690854653640e+02  3.1775405222498171e+02  4.6976831429983383e+02  4.7179616445423551e+02  4.7843219516957078e+02  4.7232265104095717e+02  4.8098381683762022e+02  8.0300570237266413e+02  8.0427936820394609e+02  7.9640230872164261e+02  5.9598774938212705e+02  5.9490977806808087e+02  6.0217083807833706e+02  5.8665131725684114e+02  5.8773222265944560e+02  5.9442976238118047e+02  8.3510388356329713e+02  8.3580011999206795e+02  8.2819855150629814e+02  8.3578263864678581e+02  8.4251125731428806e+02  8.4183159525023575e+02  8.4855813689269223e+02  8.0516430039568684e+02  8.1214868242033515e+02  8.4252729960825036e+02  3.2404787948864407e+02  3.1764121988043229e+02  3.2416253908350524e+02  4.8686387481175882e+02  4.8087206896658483e+02  4.8697818843682546e+02  5.7976014053500410e+02  5.8679413867807125e+02  5.7962789072695136e+02  2.5714684683457642e+02  2.4723051977641606e+02  1.2666858477193452e+02  4.0882357530023668e+01  1.1682551913104760e+02  7.3948930254937682e+02  7.9781290359290563e+02  7.9121441411387195e+02  7.9261950825014469e+02  7.9996822378277091e+02  2.5222409677591634e+02  2.4724294215012529e+02  2.5221493457747098e+02  2.5715478316690701e+02  1.2175794854674494e+02  1.1683975570072202e+02  1.2174688308355614e+02  3.5676117812097353e+01  4.1495661749200522e+01  3.5063079788537578e+01  1.2667844931800573e+02  7.4470496623798056e+02  7.3950008954378052e+02  7.4469717624129771e+02  2.9460072480004106e+02  3.0380592306297979e+02  3.0139329165044285e+02  2.9701142665608040e+02  4.5700412843101054e+02  4.6580527426684921e+02  4.6338522265140773e+02  4.5942353554999676e+02  6.0039434507922681e+02  6.0657758699080955e+02  6.1437565385686253e+02  6.1366177831918014e+02  8.6923031969729561e+02  8.5911336335414967e+02  8.6629862521768109e+02  8.6336787861262758e+02  8.6204681128605341e+02  8.6922973137127178e+02  8.5912110876121267e+02  8.6629937073612462e+02  8.6205487021116676e+02  8.5171932556739091e+02  8.5170636744290402e+02  2.0624174762397217e+02  1.9981934731300200e+02  2.0373356457162498e+02  6.9666086732009796e+02  6.8995036859304537e+02  6.9404165010716281e+02  7.4985391149778286e+02  5.2815181358020789e+02  5.3828624754587452e+02  7.4986067363027337e+02  5.3319894858725979e+02  5.2814381297104910e+02  5.3321117587051140e+02  5.3827346960751231e+02  3.6968833282854740e+02  3.7676729782009346e+02  3.7496544777288591e+02  3.7148953780444799e+02  4.3626684307167727e+02  4.2886308421401310e+02  4.3696700851546342e+02  2.3029748872710576e+02  2.2962714616370243e+02  2.3755822940167474e+02  2.7410329454769976e+02  2.6681432417143884e+02  2.7479985590276345e+02  3.9178904895579268e+02  3.8441661253142587e+02  3.9249261323560251e+02  5.7090070568143602e+01  4.9954814287624629e+01  5.7771749544037505e+01  1.0009927722448809e+02  9.9437528759129165e+01  1.0726991784159247e+02  1.4334745317645465e+02  1.3615351463122880e+02  1.4403582222251919e+02  1.8672211371720192e+02  1.8605419342155272e+02  1.9395461145460277e+02  6.7627136779945351e+02  6.7557209662014759e+02  6.8382774148736780e+02  7.2179747742941936e+02  7.2109639453729324e+02  7.2938536886018903e+02  6.3098564393766219e+02  6.2345730059434777e+02  6.3169795743448617e+02  3.0324619688805535e+02  2.9645453201731038e+02  2.9830083867114763e+02  4.6534764341841321e+02  4.5896617716061502e+02  4.6092326372565589e+02  4.1246005792642325e+02  4.0766872630717046e+02  4.1302769337602564e+02  4.0710137339821472e+02  4.1189326191054306e+02  6.5309980037373953e+02  6.4767783566269543e+02  6.5363790625888953e+02  6.4713393787293285e+02  6.5256822410083066e+02  6.5417810607577610e+02  6.5959777593801937e+02  6.6014051376391103e+02  6.5472008781299985e+02  4.2102957545664367e+02  4.1530472867265229e+02  4.1875206597598310e+02  3.0474352796494833e+02  4.6790005122843553e+02  3.0067117117024836e+01  3.2015920562512724e+02  4.8292986335673214e+02  7.9616329147417275e+02  5.8363205401933260e+02  3.0085776445616006e+02  4.6348526765474412e+02  3.6196311535698692e+02  3.6372175847376155e+02  3.6793221779492484e+02  5.0013420243142008e+02  5.0881614332207812e+02  5.0078836531625524e+02  7.7847955641007786e+02  7.6958243775208462e+02  7.7781713762937898e+02  5.6618939260295315e+02  5.5754272403863047e+02  5.6561313429476093e+02  3.3729107167858365e+02  3.4575967075701601e+02  3.3784749094540069e+02  1.6505055247704391e+02  1.7077029571702681e+02  1.6506656247694823e+02  1.7075446335986015e+02  1.6503430408967253e+02  1.5934619206604586e+02  1.5932979887448346e+02  7.8609039759263624e+01  8.4281592673003431e+01  7.8624336912303676e+01  8.4266217880449148e+01  7.8593674071498029e+01  7.2951533515974589e+01  7.2936304059639113e+01  8.5596366739605969e+02  3.4759385871771690e+02  3.4698234274676815e+02  3.5493700736360239e+02  7.6756444783150152e+02  7.5994916896009465e+02  7.6821295290973967e+02  5.5568445449942146e+02  5.4820701586458722e+02  5.5631323468272444e+02  5.1075617687270557e+02  5.1013682380454992e+02  5.1820462282637777e+02  4.2205701472710274e+02  4.1754145636634445e+02  4.1697468815069544e+02  6.6259849261726379e+02  6.5811762240069766e+02  6.5758111575922226e+02  6.4468326114803051e+02  6.4916021437130576e+02  6.4970016662663079e+02  2.0961514282815540e+02  2.0235745313152950e+02  2.0404421055099263e+02  2.0793031680492334e+02  7.0018264545660622e+02  6.9260087960651026e+02  6.9436175159723825e+02  6.9842352930229151e+02  0.0000000000000000e+00  0.0000000000000000e+00  5.5562523257969527e+00  8.9058214572363283e+02  8.9058214572363283e+02  8.8472203113688579e+02  8.9058214572363283e+02  0.0000000000000000e+00  3.2117172177714667e+02  4.8393612085786697e+02  7.9540216675027386e+02  5.8274564138954952e+02  8.7400153599844350e+02  8.7404476272193938e+02  8.7400439455128480e+02  8.7404627553220769e+02  4.3473709043850945e+01  3.6800876786859433e+01  4.3183813719916941e+01  4.2916394779277688e+01  3.7100411886962071e+01  3.0717626808152666e+01  3.3066824678211680e+02  3.3078590853839773e+02  4.9349851943981741e+02  4.9361417554947701e+02  5.7297414187465426e+02  5.7283537641759096e+02  7.8554586567162380e+02  7.8414124968483179e+02  2.9146839961693303e+02  2.8962142653350111e+02  4.5392748879565488e+02  4.5197291685831118e+02  2.8495098173623834e+01  2.9627993463301593e+01  3.5695082305678760e+01  1.5598311711001468e+01  1.5641454887518181e+01  2.1312513207832484e+02  2.1480833769139852e+02  7.0385234868229463e+02  7.0560989612765638e+02  1.9465345684421525e+01  1.5181103371208239e+01  1.5288475308864523e+01  2.1100357768882947e+02  2.1789047974941232e+02  2.1580292787375444e+02  7.0163702302690172e+02  7.0883228864352770e+02  7.0665000330548082e+02  3.3415735909827953e+02  3.2921763155401231e+02  3.2812547626305690e+02  4.9731771298013513e+02  4.9220466325495636e+02  4.9110500685069439e+02  5.6915677095760441e+02  5.7431886163871877e+02  5.7541152084317855e+02  7.8185000473852449e+02  7.8582660751345497e+02  7.8799145518592661e+02  2.9350873056542315e+02  2.8668263369941218e+02  2.8868991417145583e+02  4.5602456423523591e+02  4.4903446729305426e+02  4.5110862223580705e+02  2.7902295698431239e+01  2.0770497806880567e+01  2.1368807880099485e+01  7.0664943392960072e+02  6.9874677856871256e+02  6.9551319956910925e+02  6.9084756986695868e+02  7.0341649075314285e+02  1.2177995127063346e+02  1.2568564608516941e+02  1.2961323006935336e+02  1.1785365261849216e+02  1.1395151937240307e+02  2.5937725927780377e+02  2.5184250581289785e+02  2.4826735800646387e+02  2.4431428948747484e+02  2.5580095456549043e+02  1.5791350753572283e+02  1.6504488956805613e+02  1.6862313648457240e+02  1.7218301820871872e+02  1.6148992604542480e+02  7.1528766641820027e+01  7.8602841484093162e+01  8.2151797241598928e+01  8.5682961351491429e+01  7.5076481567707347e+01  2.1580509245697104e+02  2.0514724302726734e+02  2.1271072975769869e+02  2.0824222311067686e+02  2.0068246683714258e+02  2.8695232244521702e+02  2.9077887977752675e+02  2.9318012302898512e+02  4.4970366918158686e+02  4.5335536003636628e+02  4.5576800698098953e+02  6.1756597697571897e+02  6.1295703858460365e+02  6.1118877740103812e+02  3.6087664754445541e+02  3.6528350301014251e+02  3.6708082482496343e+02  4.0598812816045648e+02  4.0950995028130734e+02  4.1178580481907358e+02  3.7195716338292374e+02  3.7370983862845981e+02  3.7773310475153471e+02  5.2540307697840308e+02  5.3720793219355244e+02  5.2930004534205841e+02  5.3330907620010100e+02  5.4121820879249140e+02  7.5268961742622400e+02  7.4455964420454484e+02  7.4056921471332851e+02  7.3643719607750393e+02  7.4869796282672655e+02  2.7588252691391968e+01  3.3199806179183781e+01  2.8006749989951032e+02  2.8210551647820148e+02  3.9775271553740237e+02  4.0444127974765178e+02  3.9988092807361375e+02  4.0655435888554035e+02  1.4917442241849153e+02  1.5570244648997425e+02  1.5124705138235080e+02  1.5775318018945794e+02  6.3705541335972725e+02  6.4390712921636123e+02  6.3923154684673182e+02  6.4606205603353919e+02  1.8093008623916415e+02  1.7436387564518012e+02  1.7881697461746253e+02  1.7227604689981160e+02  7.1571851154314527e+02  7.1350600879444255e+02  6.7021558196484273e+02  6.6335684803166430e+02  6.6801128106347790e+02  6.6118591728467698e+02  9.4357831275691922e+01  8.7845772849976314e+01  9.2261639057257227e+01  8.5775994947597283e+01  6.2865520856002583e+01  6.9339865361546856e+01  6.4922257279445560e+01  7.1373994027364859e+01  2.2448143294910926e+02  2.2236328849351298e+02  4.4229684211597413e+02  4.4437366936973945e+02  5.0267592943162168e+02  4.9800390396598164e+02  4.9589954917008913e+02  5.0481904307031357e+02  5.6379108367930212e+02  5.6844910932262235e+02  5.7068100810341741e+02  5.6156037269393391e+02  7.7584111943316850e+02  7.8066327276367838e+02  7.8280603710939045e+02  7.7366913353882353e