<?xml version="1.0"?>
<VTKFile type="UnstructuredGrid"  version="0.1"  >
<UnstructuredGrid>
<Piece  NumberOfPoints="2690" NumberOfCells="4864">
<Points>
<DataArray  type="Float64"  NumberOfComponents="3"  format="ascii">-5.081304624794555 22.0177694844014 0  -5.670037923765144 21.28042918257166 0  -5.079710123005348 21.51922230702531 0  -5.077800599592627 21.01784719426504 0  -5.671654705886223 21.78075887507697 0  -6.261975576990068 21.54088320690268 0  -9 21.99999999996945 0  -8.40874733534104 21.26621332072489 0  -9 21.49999999997139 0  -9 20.99999999997333 0  -8.409034085324704 21.7661926993072 0  -7.817799336499571 21.53233842718911 0  -9 32.9999999999446 0  -8.415012298204889 32.26615504517503 0  -9 32.49999999994358 0  -9 31.99999999994255 0  -8.415298603740977 32.76616067744862 0  -7.830326486617764 32.53227858358606 0  -5.122859985680474 33.01919841451906 0  -5.624450466264242 32.31535723054969 0  -5.121200532232609 32.5217542627373 0  -5.119151196738193 32.01857537672437 0  -5.626126690908513 32.81585170186167 0  -6.129361463158946 32.60974626535913 0  -5.203633376758997 54.01828013983509 0  -5.778381854024198 54.75492767117759 0  -5.776783807821118 54.25569425557152 0  -6.349665459314328 54.4904251467651 0  -5.205530542054542 54.51965379385734 0  -5.207168462699409 55.01845906933593 0  -9 54.99999999998974 0  -8.49703494834788 54.29924535146563 0  -9 54.49999999998872 0  -9 53.99999999998769 0  -8.497289374873121 54.79916795192796 0  -7.994377555165017 54.59836112624387 0  -9 39.99999999995897 0  -8.419876251910335 40.74109511451158 0  -8.419589805211809 40.24109935720956 0  -7.83945355964447 40.4821447716088 0  -9 40.49999999996 0  -9 40.99999999996102 0  -5.153303710851137 41.01696107470868 0  -5.705477290244877 40.28609070662305 0  -5.151656373454195 40.51972934847591 0  -5.149771759879235 40.01910729596423 0  -5.707095548178863 40.78580335802302 0  -6.26091222952856 40.55153069675802 0  -9 55.99999999999179 0  -8.452576346604584 56.74665271248035 0  -8.452325233986681 56.24660361485716 0  -7.904913275687519 56.4932068721141 0  -9 56.49999999999282 0  -9 56.99999999999384 0  -5.211370049309346 56.01744396273354 0  -5.76141482376246 56.76084213709258 0  -5.759845112866485 56.26076635874368 0  -6.307993621750215 56.50187830710118 0  -5.213384634309699 56.52024240279086 0  -5.215018239083394 57.01851965861628 0  -7.50044353424072 43.01006639379398 0  -6.686990498645642 43.12389829079552 0  -7.272118229260593 43.34911265448494 0  -7.043939654327851 43.68817214254587 0  -6.915163948506311 42.78474113864724 0  -6.329631333748546 42.55942321939039 0  -6.674452016301701 49.01902612276253 0  -7.48322031798318 48.90412435321276 0  -6.901267921895553 48.67984653142722 0  -7.128256231320111 48.34060847141332 0  -7.256248646267584 49.24326698823446 0  -7.837770161750044 49.46764372867936 0  -6.667507220770173 46.01786679232445 0  -7.478693029466894 45.90337249817317 0  -6.895032638780166 45.67847451482037 0  -7.122718115895425 45.33917454062803 0  -7.251017616656973 46.24265826912529 0  -7.834271283877491 46.46738313634339 0  -6.577941082638014 7.018481453899044 0  -7.420284898291711 6.9038604256859 0  -6.814237139602019 6.679291846229926 0  -7.050694199000756 6.34010628138273 0  -7.183838087758768 7.243042587979257 0  -7.789480168355865 7.467591056979856 0  -7.481137896656793 30.0099531135963 0  -6.657202352934374 30.1236442103644 0  -7.249875343057848 30.3487248210695 0  -7.018764699909508 30.68743385684821 0  -6.888314916478259 29.78481269963146 0  -6.295230498910458 29.55977287775117 0  -6.571396163933161 4.017591281458508 0  -7.41635634432543 4.119648937503834 0  -6.809664446891508 4.353362393966996 0  -7.04780310824026 4.689076034603665 0  -7.178226503556656 3.783900059999134 0  -7.785276456547513 3.550323437776607 0  -6.584662326673001 10.01863677197647 0  -7.424976442651142 10.12034814011691 0  -6.821658034000083 10.35417520831644 0  -7.058516860352325 10.68971474592287 0  -7.188104587563839 9.784827457451753 0  -7.791810209351659 9.55099537421772 0  -6.59140214477126 13.01880612441354 0  -7.42905223676663 12.90412175161293 0  -6.826370711378428 12.67962264985519 0  -7.061499249698783 12.34044475105866 0  -7.193927317849896 13.24332630347866 0  -7.796205037884348 13.46779480214725 0  -6.598187314663535 16.01909362939553 0  -7.433488615731611 15.90420693357549 0  -6.832489413090113 15.67993163015715 0  -7.066956336576053 15.34072293037143 0  -7.199036222681404 16.24334681722576 0  -7.799620659533661 16.467707481199 0  -6.605186398099187 19.01710237095381 0  -7.438381771552888 19.11914653542375 0  -6.840242062659613 19.35233100477243 0  -7.0751320088314 19.68766796709755 0  -7.203476834934729 18.78375338785864 0  -7.80204695234839 18.55035535015105 0  -6.623608308878205 27.01646421158271 0  -7.450398228753719 27.11874744763132 0  -6.856829338987029 27.35205476731814 0  -7.089905422988231 27.68767140921081 0  -7.217320071750775 26.78302880979802 0  -7.811286853137005 26.5497434494583 0  -8.281991968336833 19.09893895519449 0  -8.042084837824916 18.82461894673734 0  -8.400863854922274 18.2752275635672 0  -8.640802118579961 18.54954781870509 0  -9 17.99999999998495 0  -8.287519821767965 27.09873801583515 0  -8.049466001700033 26.82424303271929 0  -8.405489027657731 26.27485514586936 0  -8.643572550630129 26.54936558554379 0  -9 25.99999999995395 0  -8.279763899945216 15.91176410151081 0  -8.039628233748713 16.18974592615713 0  -8.399966088000765 16.73381366431537 0  -8.640070625465393 16.4558529114455 0  -9 16.99999999998883 0  -5.822533749223709 30.11565332783365 0  -6.058814437838219 29.83769359023666 0  -5.701742256219455 29.29298025472188 0  -5.465450985500732 29.57177956814435 0  -5.10749524971554 29.0177638217855 0  -8.277721286595426 12.91175611243357 0  -8.036900402211508 13.18977173434841 0  -8.398253782531242 13.7339051734332 0  -8.639045761903331 13.45588669191932 0  -9 13.99999999999401 0  -8.275828628848819 10.09950215052454 0  -8.033880534303359 9.82524947082328 0  -8.395752540260224 9.27549481931085 0  -8.637731535756354 9.549747555211241 0  -9 8.99999999999857 0  -8.271878736388343 4.099171131502713 0  -8.028632591041367 3.824762045066987 0  -8.392515977613456 3.275135950489772 0  -8.635778469543171 3.549548727284526 0  -9 2.999999999998668 0  -8.273692714464508 6.91162535722724 0  -8.031523970183988 7.189604688556881 0  -8.394890667895018 7.733800760279326 0  -8.63702973612005 7.4558235124413 0  -9 7.999999999999485 0  -8.300546773532909 45.91140046193917 0  -8.067345719194137 46.18937084703899 0  -8.41728982434967 46.733724438992 0  -8.65046037668246 46.45575593217769 0  -9 46.99999999997333 0  -8.302629972581144 48.91171603271071 0  -8.070133935078882 49.18969014320879 0  -8.419045182040156 49.73377992817912 0  -8.651509288204554 49.45583185259233 0  -9 49.99999999997949 0  -5.862969244420235 43.1158725229303 0  -6.096231150920643 42.83764419845119 0  -5.743694976124348 42.29238443042921 0  -5.510430321237527 42.57155198538575 0  -5.156965675209232 42.01703141113938 0  -5.79886845779173 23.93828259100094 0  -6.042860873544568 24.20409372340484 0  -5.689702693544673 24.748016749831 0  -6.28671740679385 24.46996504456564 0  -5.445821809697621 24.48304784729936 0  -5.092722613256112 25.01763736084986 0  -8.309417947837765 52.08865529882173 0  -8.072574189316994 51.82273422764084 0  -8.417633687002391 51.27848182193173 0  -7.835598947179731 51.55686376204982 0  -8.654514197748673 51.54440186468402 0  -9 50.99999999998153 0  -5.842769566959412 38.1053991394468 0  -6.081885264944884 37.835624423997 0  -5.729893093449151 37.29567271966943 0  -6.321133168394216 37.56590448069894 0  -5.490764381879988 37.56646560661089 0  -5.137824107098425 37.01623845590445 0  -5.832902807789998 34.93811249770631 0  -6.074323636593649 35.20379560173438 0  -5.724961013300153 35.74749446104578 0  -6.315608990451358 35.46953534166597 0  -5.483639968501133 35.48278195158858 0  -5.134365326147083 36.01680359136957 0  -7.936683088119942 50.50844344778556 0  -7.886111928761765 51.03267632643362 0  -8.468477625090573 50.75417464031896 0  -6.214725994892457 36.51754180281435 0  -6.267949222698821 37.04161305450111 0  -5.676380450653427 36.77003092543023 0  -6.265141251225756 35.99341879275618 0  -5.674741224666558 36.26982378753516 0  -6.047625675053022 25.27925878969885 0  -6.16713423853202 24.87464868634861 0  -5.570330654731984 25.15169832582914 0  -8.05074514628849 25.75220273125587 0  -7.930970149778879 26.15097243597794 0  -8.52542950643031 25.8761043571969 0  -7.008352524088556 34.38886839146971 0  -6.661794123660104 34.92930623847342 0  -6.911043889446598 35.2521037860636 0  -7.257626139706665 34.7118147728202 0  -7.506739281934143 35.03472925874242 0  -7.153799693730764 52.63703288514264 0  -7.494504901903047 52.09704459089964 0  -7.249531340178272 51.7745232322854 0  -6.908845008290633 52.31456737906501 0  -6.663723182561705 51.99215252459463 0  -7.016680251338214 38.63694951752502 0  -6.66909358870209 38.10153011105658 0  -6.916229335164995 37.77525388680417 0  -7.263798219314566 38.31083200872474 0  -7.51107508223842 37.98467494222713 0  -6.986964855761653 23.38896311842423 0  -6.636657665531929 23.92952877152423 0  -6.888566766454717 24.25240768682545 0  -7.238900435339131 23.71196762599489 0  -7.490677360570782 24.03492222331226 0  -7.90185549855453 17.50833145446932 0  -7.851923167835581 18.02937015424589 0  -8.45106112666528 17.75411744250709 0  -7.850762445428673 16.98802918433663 0  -8.450794589820449 17.2541925553573 0  -7.892533955222969 8.508521775922587 0  -7.842148373874145 9.029760291963843 0  -8.446393620294806 8.754262742738774 0  -7.933872674345354 2.423001488404736 0  -7.859523943185754 2.98664005588134 0  -8.467055434359171 2.711525581655271 0  -7.841032202520836 7.988061074442007 0  -8.446137598523118 8.254254903764632 0  -7.887252472003479 49.98805414859236 0  -8.468204339656427 50.25424986320196 0  -6.142428555189271 41.61032165952452 0  -6.236075362779218 42.08495158400221 0  -5.64981332
[...]
<PointData  Scalars="f_29"> 
<DataArray  type="Float64"  Name="f_29"  format="ascii">3.9581598998054108e+02  3.8213736445602922e+02  3.8651738902570622e+02  3.7723697111103189e+02  3.9138063806917688e+02  3.8696716716478170e+02  3.9566684613067588e+02  3.8199354533700648e+02  3.8636611388323757e+02  3.7707864629591836e+02  3.9123882356499121e+02  3.8688100879761538e+02  6.0084252282475711e+02  5.8684795533933789e+02  5.9132186244667253e+02  5.8181733293079003e+02  5.9631132832417222e+02  5.9184801075374071e+02  6.0094384702466550e+02  5.8762683216599351e+02  5.9146802854637633e+02  5.8202074494570923e+02  5.9707115883802589e+02  5.9320969831190291e+02  1.0059321901528558e+03  1.0206197881187417e+03  1.0107150072990698e+03  1.0153995325322198e+03  1.0158759983072117e+03  1.0258651872846697e+03  1.0256888950285222e+03  1.0117601050248721e+03  1.0157748644181275e+03  1.0058611319265946e+03  1.0216608616959186e+03  1.0176532356835244e+03  7.3374703144030298e+02  7.4803772854651027e+02  7.3841550643180324e+02  7.4301482852564027e+02  7.4342887175792634e+02  7.5309999098504466e+02  7.5324333536923427e+02  7.3912552666065915e+02  7.4358495918587505e+02  7.3391424372862718e+02  7.4876128057355925e+02  7.4427415432416183e+02  1.0454408403808491e+03  1.0602782746522578e+03  1.0503443178374164e+03  1.0551972135205233e+03  1.0553897889074201e+03  1.0653913476437851e+03  1.0455831604508364e+03  1.0603865732377162e+03  1.0504585786849229e+03  1.0552670591533424e+03  1.0555221818889543e+03  1.0655274213575888e+03  7.9158482897389376e+02  7.9369526980426372e+02  7.9809268773249767e+02  8.0460777452742320e+02  7.8719463791089186e+02  7.8280489481971415e+02  9.0785112099891080e+02  9.0570258830521209e+02  9.0126446012592714e+02  8.9468277247612639e+02  9.1229514705852841e+02  9.1673391166995702e+02  8.4956399107809227e+02  8.4742577194644093e+02  8.4302586124097797e+02  8.3648922294972476e+02  8.5397102662606972e+02  8.5837466326027993e+02  1.2376462250520120e+02  1.2179237008985947e+02  1.1774674005867780e+02  1.1173220567083256e+02  1.2781615655495683e+02  1.3186289656186162e+02  5.4432444371460099e+02  5.4638063498535780e+02  5.5066343127531138e+02  5.5701071429677370e+02  5.4005208235274176e+02  5.3578056570630849e+02  7.0507720543011132e+01  7.2389380925784209e+01  7.6469525949355230e+01  8.2433465549607249e+01  6.6433554451582154e+01  6.2360017012229690e+01  1.7740072370275828e+02  1.7930166970261016e+02  1.8344354527451412e+02  1.8948774936954402e+02  1.7326368974468181e+02  1.6913045993918300e+02  2.3137766794672802e+02  2.2937739651701969e+02  2.2527871577365696e+02  2.1918307145760517e+02  2.3548128220754336e+02  2.3958108338293061e+02  2.8570786087450870e+02  2.8370152638239699e+02  2.7956709875193684e+02  2.7343119623634311e+02  2.8984798512386419e+02  2.9398275870343349e+02  3.4045656799368481e+02  3.4241705547890911e+02  3.4663921114730721e+02  3.5282757701271129e+02  3.3624471341940711e+02  3.3203054445594978e+02  4.8828724098609456e+02  4.9027938214620150e+02  4.9456865307195307e+02  5.0085400572867297e+02  4.8400699918657114e+02  4.7972281068173504e+02  3.4211749337406542e+02  3.3707545350847442e+02  3.2706660838262434e+02  3.3209371934917607e+02  3.2213337833724182e+02  4.8997931494098304e+02  4.8485122508124243e+02  4.7466967291220152e+02  4.7978332936250717e+02  4.6963710658077156e+02  2.8391200506718633e+02  2.8894608726165802e+02  2.9886422199908924e+02  2.9382259823157472e+02  3.0369827162771617e+02  5.4611446225711632e+02  5.4095060135348615e+02  5.3075359733528046e+02  5.3586631999412020e+02  5.2575595601653731e+02  2.2958076161283068e+02  2.3457958316455597e+02  2.4442223102468375e+02  2.3942722117387240e+02  2.4924192003451660e+02  1.7900082046741230e+02  1.7406682760601979e+02  1.6426546035741123e+02  1.6918555479828046e+02  1.5943305333665134e+02  7.2098529088162749e+01  6.7229638734051420e+01  5.7557069602095829e+01  6.2422932641000379e+01  5.2803763594366544e+01  1.2199206937834843e+02  1.2692629889236032e+02  1.3664190829451476e+02  1.3170125646213521e+02  1.4137369053871765e+02  8.4765218702199650e+02  8.5301203051854543e+02  8.6357426451357333e+02  8.5821766329464504e+02  8.6875203938821778e+02  9.0593293417069890e+02  9.1133209500019427e+02  9.2197415549515972e+02  9.1656749430949617e+02  9.2716853316544666e+02  7.9342597283871601e+02  7.8811832176166229e+02  7.7764031243394902e+02  7.8289639837516711e+02  7.7251397759860754e+02  4.3105729180441472e+02  4.3601878179516973e+02  4.4607903919387252e+02  4.4097824793719730e+02  4.4107975558658507e+02  4.5116530618912930e+02  9.6815701047981190e+02  9.6291355995544825e+02  9.5228146709095540e+02  9.5766865728426944e+02  9.5750952435493457e+02  9.4692435195593998e+02  6.9729444457271268e+02  6.9219916421747223e+02  6.8193502955288318e+02  6.8710057570393758e+02  6.8697073990829404e+02  6.7681064587064327e+02  6.3706591402363824e+02  6.4214913676244714e+02  6.5244683618793465e+02  6.4723104939301845e+02  6.4731683172466012e+02  6.5762899200222944e+02  9.3710736985952690e+02  9.4738905994133449e+02  9.4198399198325376e+02  6.6718941903726454e+02  6.7714441384746203e+02  6.7197954616051084e+02  6.5719976227497000e+02  6.6243733354626931e+02  4.5600169710738834e+02  4.4848427397066490e+02  4.5361923749030211e+02  4.6491687523268274e+02  4.7231992496546366e+02  4.6725265327414655e+02  6.2683438332222863e+02  6.3702275178107982e+02  6.4317042929623608e+02  6.3297168385502846e+02  6.3911167533515879e+02  9.7883076699801757e+02  9.6824146956895140e+02  9.6187707147148717e+02  9.7245739051292367e+02  9.6608901651657641e+02  7.0758613120411019e+02  6.9732895830686971e+02  6.9113715039710246e+02  7.0138313868840851e+02  6.9518284706429154e+02  4.2105528205448132e+02  4.3100626146803876e+02  4.3700570345317578e+02  4.2704502537944740e+02  4.3303645307569900e+02  3.1297290861830982e+02  3.2250231680055606e+02  3.1752029699262414e+02  3.0346876559698711e+02  3.0836500081733436e+02  1.5046604167222077e+02  1.5979968313608347e+02  1.5491610394204494e+02  4.2463655045660310e+01  5.2413392798011557e+01  4.7606963186064036e+01  1.4115586112055703e+02  1.4594863907904104e+02  9.2691149472887673e+02  9.3216642457436194e+02  7.6460271676938294e+02  7.7370108800710955e+02  7.6854111337578672e+02  4.4538603338184936e+02  4.4318478706280945e+02  4.3920719066409396e+02  9.5038952491186217e+02  9.5402863669928433e+02  9.5823747598193984e+02  6.8002226742975620e+02  6.8356270101275959e+02  6.8759781479411788e+02  6.5429702909020887e+02  6.5076682601982247e+02  6.4669936590349141e+02  5.2078790498401463e+02  5.2828196866069538e+02  5.2325638280375665e+02  8.0532268282181928e+02  7.9404595837034299e+02  8.0496804908131037e+02  8.9395671861736605e+02  9.0533694190168421e+02  8.9432080069335518e+02  8.3575860545737976e+02  8.4706027948884685e+02  8.3612502973374274e+02  1.1105813074716787e+02  1.2145301481597933e+02  1.1139718815120797e+02  8.3021828435995346e+01  7.2685601992336203e+01  8.2730040703558416e+01  5.5785299590806324e+02  5.4679725449675880e+02  5.5743590222776970e+02  1.9007857034902810e+02  1.7959951664475389e+02  1.8978543165256002e+02  2.1849843096583709e+02  2.2903322763522357e+02  2.1884267343064087e+02  2.7275046022465955e+02  2.8335871285460303e+02  2.7309193336839473e+02  3.5358957904524442e+02  3.4280145622036821e+02  3.5321336009810284e+02  5.0148260035199723e+02  4.9059518891311438e+02  5.0117093328045485e+02  4.7368365264436613e+02  4.7670273625644461e+02  4.8098363208661567e+02  3.2535225781484473e+02  3.2869129123255794e+02  3.3290204351808808e+02  3.0056414031934946e+02  2.9727510545155957e+02  2.9313350016363870e+02  5.2946489268651146e+02  5.3262500189241950e+02  5.3689095883915877e+02  2.4591709253718278e+02  2.4274994205223817e+02  2.3864477932356604e+02  1.6272933284818626e+02  1.6593012778848487e+02  1.7006197607645660e+02  5.8364212067366331e+01  6.0362758853195395e+01  6.4434367055702836e+01  1.3831543899592492e+02  1.3509075838459572e+02  1.3103681927760721e+02  7.7629306402212876e+02  7.7955016526107420e+02  7.8393637151483017e+02  9.2379059280659601e+02  9.2026395967008557e+02  9.1581812807103495e+02  8.6516433187265432e+02  8.6177026191214770e+02  8.5736097979206136e+02  7.5443944143693932e+02  7.5892102942900453e+02  1.0356917288863349e+03  1.0255484753691410e+03  1.0307324218449969e+03  1.0356144236359560e+03  1.0266327745907149e+03  1.0306464616435119e+03  1.0454046595765283e+03  1.0405262210510173e+03  1.0454801170498874e+03  1.0406362263953079e+03  2.4853569862565926e+01  3.6310541785733861e+01  2.7506338228615544e+01  3.0155049364902759e+01  3.3651717350879572e+01  1.1098001710372932e+03  1.1098606783412724e+03  1.1174836806244127e+03  1.1099177529529545e+03  1.1174279540886375e+03  1.1250603551981317e+03  1.1098036932272225e+03  1.1098652923811717e+03  1.1174866871508573e+03  1.1174305519775023e+03  1.1250603551981317e+03  1.0789264805207681e+03  1.0670573191687442e+03  1.0721405929101372e+03  1.0789764851475361e+03  1.0671246978127592e+03  1.0722309334574745e+03  1.3591461461506691e+01  1.3644947267057677e+01  6.8452355295228529e+00  1.3695139787599938e+01  6.7948246634847767e+00  0.0000000000000000e+00  4.0193809410464320e+02  3.9510423738444058e+02  4.0332547013198825e+02  3.9371761534797884e+02  4.0055985088349286e+02  6.0725175326034105e+02  6.0025405237727148e+02  6.0865899205752396e+02  5.9884744030010961e+02  6.0585264206540546e+02  7.2736800001156314e+02  7.3449669040702270e+02  7.2598194397260238e+02  7.3587795985702587e+02  7.2874261310404222e+02  1.0007160060188056e+03  1.0080620232968565e+03  1.0052491795265448e+03  9.9792148377543526e+02  9.9511292278443636e+02  1.3430193172642804e+01  1.3564211476405591e+01  6.8464656011218938e+00  6.7118406408037039e+00  0.0000000000000000e+00  3.7214922451999820e+02  3.7956142434202468e+02  3.7471935937178694e+02  5.7667147756233214e+02  5.8425892876511296e+02  5.7925912226114349e+02  7.5822320049999882e+02  7.5061738127902800e+02  7.5564746710173677e+02  1.0255327120067502e+03  1.0356857770524557e+03  1.0356678910119788e+03  1.0454293360597408e+03  1.0356456156121792e+03  1.0454634499068252e+03  1.0266577265793412e+03  7.5351716428014129e+02  7.6368021005981564e+02  7.6275918285656644e+02  3.8313528572112733e+02  3.8500683723792537e+02  3.9323246466363986e+02  3.8504995149269035e+02  3.9514413104787462e+02  5.8672684333004372e+02  5.8928601652694306e+02  5.9769297164772922e+02  5.8996874175574123e+02  6.0093040717192343e+02  1.0121087730891963e+03  1.0137574961208438e+03  1.0036080175571523e+03  7.4700554955375810e+02  7.4564075979759809e+02  7.5488354463975929e+02  7.3511876355325785e+02  7.3648885677112662e+02  7.4501329140784003e+02  1.0534636409927452e+03  1.0543673134099802e+03  1.0445638696663630e+03  1.0543325487402458e+03  1.0630062842757509e+03  1.0621364971147868e+03  1.0708086392369776e+03  1.0148819593661198e+03  1.0238851132207966e+03  1.0630384696443034e+03  4.0304820676943262e+02  3.9501330312563761e+02  4.0318628955967790e+02  6.0838161300652757e+02  6.0079800182277381e+02  6.0852042425899742e+02  7.2634749129891554e+02  7.3530981708068418e+02  7.2617409026830592e+02  3.1916459103584492e+02  3.0676375194749789e+02  1.5659943667408160e+02  5.0415103887462742e+01  1.4438632620733293e+02  9.3044447869157477e+02  1.0054151764448699e+03  9.9692287761980356e+02  9.9872224968395824e+02  1.0081835913898698e+03  3.1301649455129706e+02  3.0678832283756856e+02  3.1299691689950066e+02  3.1918311856832815e+02  1.5051468333753948e+02  1.4441321069795856e+02  1.5049252527577266e+02  4.3995415753222595e+01  5.1179788530060819e+01  4.3232685498835956e+01  1.5662080387931221e+02  9.3714819088251556e+02  9.3046711182021409e+02  9.3712997212454457e+02  3.6609096990864538e+02  3.7764931817351771e+02  3.7461201373544725e+02  3.6912546474485339e+02  5.7057492526525084e+02  5.8170166399615960e+02  5.7864949041353054e+02  5.7362684900736463e+02  7.5260945864932944e+02  7.6048834134713240e+02  7.7044313266766846e+02  7.6952664317728534e+02  1.0974732069225324e+03  1.0844163871443827e+03  1.0936909858096656e+03  1.0899101789915806e+03  1.0881987866128657e+03  1.0974739835739422e+03  1.0844333323227950e+03  1.0936935077375572e+03  1.0882177596271963e+03  1.0748893246784139e+03  1.0748625277759086e+03  2.5557742825900846e+02  2.4757420416852258e+02  2.5243928054983266e+02  8.7553583873356069e+02  8.6694974267949488e+02  8.7217286907825064e+02  9.4375013798654550e+02  6.6073356797203598e+02  6.7360232566963805e+02  9.4376774584503880e+02  6.6713378131767558e+02  6.6071525758672362e+02  6.6715863919156789e+02  6.7357828702809400e+02  4.6040023748693739e+02  4.6930056547390416e+02  4.6704201790220043e+02  4.6265770665794821e+02  5.4436295289983627e+02  5.3500741061270139e+02  5.4525031532234789e+02  2.8557217394443194e+02  2.8474406355623978e+02  2.9464292933944120e+02  3.4036010722256191e+02  3.3123260310603621e+02  3.4124077078589141e+02  4.8819491706496365e+02  4.7890631898014180e+02  4.8908931532814631e+02  7.0401758374458183e+01  6.1588383814706539e+01  7.1252437551068212e+01  1.2361660037368603e+02  1.2280557155800216e+02  1.3250407089791014e+02  1.7727605162822653e+02  1.6834103883897185e+02  1.7814040512714112e+02  2.3122941340336209e+02  2.3040678378912884e+02  2.4023976781960243e+02  8.4942723711707811e+02  8.4854159916977187e+02  8.5909314614148036e+02  9.0771739204921482e+02  9.0682729362404530e+02  9.1745029485378632e+02  7.9162515261163333e+02  7.8201594505033336e+02  7.9253748958545407e+02  3.7692460600931997e+02  3.6840627805989760e+02  3.7071047193870021e+02  5.8114169670100364e+02  5.7306684093965941e+02  5.7555097146415380e+02  5.1428609360038399e+02  5.0824535272939494e+02  5.1501334954453159e+02  5.0751892414827080e+02  5.1355991369031938e+02  8.1986983399238318e+02  8.1293839511835597e+02  8.2054355443738598e+02  8.1225506710712739e+02  8.1920926818041642e+02  8.2122117428964521e+02  8.2814879616731105e+02  8.2882991945581864e+02  8.2190130015785917e+02  5.2512260231576101e+02  5.1789697640361953e+02  5.2223876837581031e+02  3.7879416288485635e+02  5.8437979873661152e+02  3.7072897179216980e+01  3.9812115210251295e+02  6.0335594783056808e+02  1.0033246491133851e+03  7.3123993827526419e+02  3.7390724832721054e+02  5.7879980491034121e+02  4.5068805318414246e+02  4.5289199759013121e+02  4.5820089787286724e+02  6.2518498030716444e+02  6.3619028264612473e+02  6.2601135328157034e+02  9.8053079728523835e+02  9.6909131904693356e+02  9.7968588294346853e+02  7.0906678007162895e+02  6.9806638794243167e+02  7.0833069665849575e+02  4.1966603756443078e+02  4.3030534985245458e+02  4.2036246474513604e+02  2.0428581717710108e+02  2.1140639874568251e+02  2.0431837317109279e+02  2.1137409672262032e+02  2.0425279899305184e+02  1.9719645794513363e+02  1.9716319005341438e+02  9.7035698328926173e+01  1.0406020020770117e+02  9.7065634750088520e+01  1.0402994548540701e+02  9.7005417853802584e+01  9.0041091787059983e+01  9.0011241679221669e+01  1.0803588128119416e+03  4.3261362329203416e+02  4.3184759138678805e+02  4.4184762225261358e+02  9.6647375049919958e+02  9.5668541398135642e+02  9.6731546263239227e+02  6.9570658024527552e+02  6.8619767640424050e+02  6.9650837676169760e+02  6.3865390678125311e+02  6.3787082616490989e+02  6.4810509964850553e+02  5.2639453786199363e+02  5.2070213866712936e+02  5.1997607219707777e+02  8.3200751989443052e+02  8.2627536004297349e+02  8.2560307879861818e+02  8.0908906287637421e+02  8.1481508482151924e+02  8.1549295971414074e+02  2.5980482569562372e+02  2.5074547294076402e+02  2.5285908156842535e+02  2.5769431187156550e+02  8.8006344285388457e+02  8.7034834804817137e+02  8.7261169137359263e+02  8.7780268127257534e+02  0.0000000000000000e+00  0.0000000000000000e+00  6.8468112614785781e+00  1.1250603551981317e+03  1.1250603551981317e+03  1.1174871512025222e+03  1.1250603551981317e+03  0.0000000000000000e+00  3.9944572853464507e+02  6.0468017937956427e+02  1.0022959734001765e+03  7.3015618581589092e+02  1.1036338082029645e+03  1.1036925342374138e+03  1.1036374129064232e+03  1.1036945266225794e+03  5.3634783386985930e+01  4.5406762741804819e+01  5.3285496775791536e+01  5.2961541712410821e+01  4.5769037587217213e+01  3.7886824491826708e+01  4.1135465756880410e+02  4.1149573815565162e+02  6.1678210523338998e+02  6.1692161698812026e+02  7.1770591233474784e+02  7.1752261601674434e+02  9.8962094299422017e+02  9.8782109895956864e+02  3.6214455694238160e+02  3.5983819072876003e+02  5.6669779043070992e+02  5.6421681183751616e+02  3.5135352901695597e+01  3.6544979126136447e+01  4.4031841496822437e+01  1.9218702562839503e+01  1.9276165213798738e+01  2.6416393257217811e+02  2.6627326802142733e+02  8.8474580723843974e+02  8.8700571502258208e+02  2.3993737969087697e+01  1.8708545940319386e+01  1.8842819509273433e+01  2.6150367122333563e+02  2.7009746149717341e+02  2.6747903720845420e+02  8.8189554837609387e+02  8.9111335669518667e+02  8.8830278468048823e+02  4.1570963977086524e+02  4.0951466070191185e+02  4.0813308831105326e+02  6.2159565981260050e+02  6.1512461424933599e+02  6.1372198071423088e+02  7.1282355787917788e+02  7.1940028295030527e+02  7.2078240036070656e+02  9.8489071143044521e+02  9.9000193276414700e+02  9.9279367518545962e+02  3.6469016201338093e+02  3.5613434451650312e+02  3.5863980683751885e+02  5.6935655183099357e+02  5.6051375079024933e+02  5.6314954970763267e+02  3.4386800575531176e+01  2.5593347639317628e+01  2.6325497812358520e+01  8.8835718171540100e+02  8.7824123054189874e+02  8.7409387469626120e+02  8.6813113867238587e+02  8.8421107254435185e+02  1.5055887061983810e+02  1.5539681271675150e+02  1.6027898984857774e+02  1.4567953409224771e+02  1.4084849006223206e+02  3.2197673271340267e+02  3.1255550901151975e+02  3.0807766323331691e+02  3.0314575810642572e+02  3.1749694938574180e+02  1.9544080756617126e+02  2.0430802069767557e+02  2.0875053492276700e+02  2.1318886203014875e+02  1.9987915499736690e+02  8.8302443720970288e+01  9.7053712258841827e+01  1.0143784795579542e+02  1.0581708550070046e+02  9.2683706519311102e+01  2.6753812033916944e+02  2.5424375481086503e+02  2.6367261263636340e+02  2.5811067950275816e+02  2.4868869039057617e+02  3.5651219596187082e+02  3.6130498213998158e+02  3.6432560518865841e+02  5.6132646665572565e+02  5.6595234996328031e+02  5.6899529219127010e+02  7.7448851477367759e+02  7.6862093013364836e+02  7.6635748887327941e+02  4.4929673084038973e+02  4.5484942533342195e+02  4.5710176977390455e+02  5.0614933342490815e+02  5.1058381215381542e+02  5.1346718226433575e+02  4.6327570895656066e+02  4.6547014260776149e+02  4.7054069584337793e+02  6.5721801381058901e+02  6.7221584824283275e+02  6.6217451901882805e+02  6.6725650063318153e+02  6.7730173755562510e+02  9.4741686544968968e+02  9.3697850833847826e+02  9.3184745367355697e+02  9.2655384680799898e+02  9.4228351941869801e+02  3.4017859921225458e+01  4.0945670266951190e+01  3.4785117362040410e+02  3.5039354274959419e+02  4.9573005760510790e+02  5.0415687334424723e+02  4.9840228397172109e+02  5.0681184702262703e+02  1.8453868166593608e+02  1.9264403436554795e+02  1.8710090648234211e+02  1.9518066413486119e+02  7.9937520350483737e+02  8.0813459061218953e+02  8.0214969327663346e+02  8.1088926273078914e+02  2.2403921618004108e+02  2.1585667833048234e+02  2.2139475926924848e+02  2.1324506715923650e+02  8.9994549590372458e+02  8.9709707099678792e+02  8.4170516156980511e+02  8.3293054009327921e+02  8.3887469797035124e+02  8.3014214743440721e+02  1.1652512116458050e+02  1.0845273420597687e+02  1.1391616579891244e+02  1.0587804915727875e+02  7.7559033960685213e+01  8.5555319615147781e+01  8.0089237003517411e+01  8.8058468332127489e+01  2.7833177832398979e+02  2.7567466433913086e+02  5.5198395846522317e+02  5.5460587492939771e+02  6.2840160843838225e+02  6.2249608677138383e+02  6.1983708643165232e+02  6.3112270110958889e+02  7.0601269552753774e+02  7.1195294892665117e+02  7.1480243630165523e+02  7.0317691852185146e+02  9.7712428419311289e+02  9.8333028527697650e+02  9.8607903556469614e+02  9.7434107972424761e