<?xml version="1.0"?>
<VTKFile type="UnstructuredGrid"  version="0.1"  >
<UnstructuredGrid>
<Piece  NumberOfPoints="2690" NumberOfCells="4864">
<Points>
<DataArray  type="Float64"  NumberOfComponents="3"  format="ascii">-5.085586922576259 22.01869912206276 0  -5.673565478428941 21.28136571725578 0  -5.083911565858314 21.52022767066875 0  -5.081896933917199 21.01877800967532 0  -5.675270520214753 21.7817137729007 0  -6.264914673650311 21.54171364151955 0  -9 21.99999999996945 0  -8.409372920678468 21.26640761465308 0  -9 21.49999999997139 0  -9 20.99999999997333 0  -8.409675245642166 21.76638593899727 0  -7.819067242661944 21.53272236757496 0  -9 32.9999999999446 0  -8.415974914191091 32.26634620150492 0  -9 32.49999999994358 0  -9 31.99999999994255 0  -8.41627672001756 32.76635217914189 0  -7.832268133308865 32.53265923804936 0  -5.129374847521648 33.02020042232976 0  -5.63000858368125 32.31634961582304 0  -5.12763258576141 32.52289104418862 0  -5.125465320770982 32.01954478249763 0  -5.63177735559608 32.81687050546152 0  -6.134137161845316 32.61063629194469 0  -5.214559124590408 54.01923002091632 0  -5.787794359887189 54.75583173729075 0  -5.786108416095873 54.25663884147342 0  -6.357366427675799 54.49122619285743 0  -5.216567053125175 54.52067902532198 0  -5.218288101472066 55.01941374552713 0  -9 54.99999999998974 0  -8.498489472531878 54.29940833746035 0  -9 54.49999999998872 0  -9 53.99999999998769 0  -8.498758242636283 54.79932664072079 0  -7.997304094118056 54.59867995993041 0  -9 39.99999999995897 0  -8.421102485980379 40.74128272912947 0  -8.42080051391294 40.24128725932349 0  -7.841889908256173 40.48251758628509 0  -9 40.49999999996 0  -9 40.99999999996102 0  -5.161467246854283 41.0178406656719 0  -5.712354151036987 40.28704170470134 0  -5.159737085257092 40.52075666098331 0  -5.15774569161302 40.02010093117517 0  -5.714060450739384 40.78673948218216 0  -6.266671655592891 40.55235863522273 0  -9 55.99999999999179 0  -8.454236281611502 56.74682569319799 0  -8.453971107892928 56.24677381843814 0  -7.908219720861816 56.49354740180974 0  -9 56.49999999999282 0  -9 56.99999999999384 0  -5.222725734506239 56.01834699829154 0  -5.771260778340914 56.76175075998782 0  -5.769606362738854 56.26167071353883 0  -6.316134244554919 56.50266835171956 0  -5.224857887005382 56.52129842790153 0  -5.226574642980828 57.0194790462168 0  -7.503801829149507 43.01059387588963 0  -6.692187016184329 43.1247230673659 0  -7.276019697677157 43.34972992333371 0  -7.048391838166583 43.68887972952064 0  -6.91980872604791 42.7854701385238 0  -6.335549957187565 42.56035456984698 0  -6.680426722205193 49.02002721051532 0  -7.487107288158005 48.90477155787576 0  -6.90661664305204 48.68075105506795 0  -7.13298940758545 48.34141309438351 0  -7.26075252252917 49.24400900409405 0  -7.840787749643586 49.46813371544994 0  -6.673107975671847 46.01880630902037 0  -7.482336073201519 45.90397917191116 0  -6.900047166677241 45.67930543849243 0  -7.127155427012788 45.33990175970162 0  -7.255238300418148 46.24336771769561 0  -7.837098684817121 46.46785909610119 0  -6.578734763932088 7.0194500779467 0  -7.42079319456316 6.904490834724901 0  -6.814915446722135 6.680163325205053 0  -7.05126623754296 6.340880774437709 0  -7.18445310518165 7.243769685009782 0  -7.789903394698901 7.468076125213796 0  -7.483451045329192 30.01047480066178 0  -6.660786017651295 30.12445550126301 0  -7.252573197183052 30.3493215385266 0  -7.021855357924791 30.68810212013772 0  -6.891505437635634 29.78554572607798 0  -6.299284843963447 29.56072287244011 0  -6.571851447806119 4.018512410480179 0  -7.416661511589336 4.120250076082086 0  -6.810106267447282 4.354201481359214 0  -7.048225618694748 4.689830180185705 0  -7.178551400402344 3.784584440977596 0  -7.785482270086101 3.550776877473944 0  -6.58580831892847 10.01961276815036 0  -7.425730426025468 10.12098601494091 0  -6.822725087245291 10.35505705092804 0  -7.059498437662373 10.69050256239606 0  -7.188943130644572 9.785560486442263 0  -7.792355470798866 9.551484061085651 0  -6.592901591944898 13.01979199567454 0  -7.4300198107082 12.90476601769465 0  -6.827684886339921 12.68051170454902 0  -7.062637198163626 12.34123722170624 0  -7.195070967778516 13.24406843656769 0  -7.796980514751964 13.46829067216699 0  -6.600044355330172 16.02009446492451 0  -7.434690731321173 15.90485580524795 0  -6.834126036587704 15.6808368491937 0  -7.068382084419472 15.34153001853776 0  -7.200450304591739 16.2440901911623 0  -7.800577498501121 16.46819898258718 0  -6.607424927655033 19.01799940533541 0  -7.439850456656981 19.11972203366469 0  -6.842302046317037 19.35311705902837 0  -7.077003852964534 19.68834879017081 0  -7.205132542002999 18.78443099732312 0  -7.803135780984056 18.55081104441988 0  -6.626838626638908 27.01732800227193 0  -7.452514073570042 27.11930225392905 0  -6.85978059303976 27.35282672812808 0  -7.092570323506984 27.68835296285773 0  -7.219722659126717 26.78366854670403 0  -7.812874829940145 26.55016706251551 0  -8.28266645451604 19.09920311193244 0  -8.04297010554272 18.82497738908402 0  -8.401399476088145 18.27545804564094 0  -8.641128656439875 18.54968405191977 0  -9 17.99999999998495 0  -8.288492190761422 27.0989917309429 0  -8.050749485889931 26.82458182685999 0  -8.406274796118172 26.27506605667941 0  -8.644048744995018 26.54949225338832 0  -9 25.99999999995395 0  -8.280317106911156 15.91206110865603 0  -8.040379791715811 16.19014071242452 0  -8.400452872148099 16.73405735084857 0  -8.640357358910174 16.45599991034699 0  -9 16.99999999998883 0  -5.827397137274362 30.11679427838682 0  -6.063269726273034 29.83873836272777 0  -5.70663941602816 29.29414460295405 0  -5.470758502430671 29.57308440695873 0  -5.113175746444847 29.01869665151354 0  -8.278166332171352 12.91205258303613 0  -8.037507337102099 13.19016771191773 0  -8.398649390992516 13.73415351693732 0  -8.639278033919858 13.45603538037375 0  -9 13.99999999999401 0  -8.276174517489137 10.09979557541556 0  -8.034329264584017 9.825640559192106 0  -8.396017123478336 9.275739021658929 0  -8.637894962486573 9.549894087241933 0  -9 8.99999999999857 0  -8.272019021987726 4.099447152938748 0  -8.028808405173967 3.825127536876558 0  -8.392612572168716 3.275361327360881 0  -8.635840431051392 3.549684819453682 0  -9 2.999999999998668 0  -8.273926799969853 6.911914896079494 0  -8.031849310931531 7.18999180985675 0  -8.39511011689992 7.734043558127184 0  -8.637156417196017 7.455968847973609 0  -9 7.999999999999485 0  -8.302222097885487 45.91167904677714 0  -8.069593704032707 46.18974698757996 0  -8.418711677333729 46.73396420688088 0  -8.651307969821167 46.45589825188796 0  -9 46.99999999997333 0  -8.30441768462682 48.91201175742666 0  -8.072532887127203 49.19008357068497 0  -8.420562833565729 49.73402270732641 0  -8.652413900147826 49.455978304974 0  -9 49.99999999997949 0  -5.870023401276247 43.11702519735084 0  -6.102713863855964 42.83868651037375 0  -5.750866565387151 42.29351730301487 0  -5.518176370583146 42.57284500878654 0  -5.165327246677004 42.01792428195376 0  -5.802716156278689 23.93943463882133 0  -6.046456083458318 24.20514424573967 0  -5.693823104981941 24.749173983973 0  -6.290052679093332 24.47091739757355 0  -5.450203367861031 24.48435064996282 0  -5.097608367777613 25.01855619690878 0  -8.311320764752109 52.08891658152157 0  -8.075114282967085 51.82309091934385 0  -8.419209274586731 51.27871195552462 0  -7.838768880058755 51.55731856758086 0  -8.655454550730916 51.54453654157097 0  -9 50.99999999998153 0  -5.848984563161215 38.10653907792906 0  -6.087585024502847 37.8366578377263 0  -5.736180958016353 37.29680728193764 0  -6.326324654674385 37.5668332502028 0  -5.497569840297342 37.56776107244993 0  -5.145143643852518 37.0170892803942 0  -5.83858223412032 34.93925578242815 0  -6.0796127926602 35.204830545999 0  -5.730980335051658 35.74862401080929 0  -6.320500455403699 35.47046492899891 0  -5.490057624661154 35.48407104866372 0  -5.141493613653812 36.017673940941 0  -7.939510055374062 50.50887824429532 0  -7.889108633679311 51.03312235642279 0  -8.469898707110248 50.75438954025841 0  -6.21996004705917 36.51845904247865 0  -6.273162960603647 37.04253035744821 0  -5.682670061724375 36.77107791422331 0  -6.270202255309674 35.99433523786599 0  -5.680940009226835 36.27085804718587 0  -6.051376400735613 25.28026922773279 0  -6.170675528723179 24.87563172900594 0  -5.574666465262082 25.15283404952995 0  -8.051974038058836 25.75253763303392 0  -7.932376149275317 26.15135165101289 0  -8.526046931526235 25.87627197636927 0  -7.011861960003829 34.3895483473985 0  -6.665984520870507 34.93011700875626 0  -6.914824772838976 35.25282233115398 0  -7.260727542431432 34.71241065154706 0  -7.509423919791359 35.03523933236269 0  -7.158949480785281 52.63771093536935 0  -7.498653572367342 52.09761628289129 0  -7.254319736318222 51.77520166679287 0  -6.914635490805591 52.3153553567586 0  -6.670144822045971 51.99305299565076 0  -7.020641249315987 38.63762289477884 0  -6.673679995934569 38.1023367181346 0  -6.920291581130265 37.77596973813218 0  -7.267234347001081 38.31142340379498 0  -7.513994885114601 37.98518205262602 0  -6.989323387489557 23.38964803568658 0  -6.639494806413519 23.93035120369606 0  -6.891136937981909 24.25314230582396 0  -7.240993750946506 23.71257152668776 0  -7.492496904301466 24.03544248221382 0  -7.902791391642292 17.50876839996517 0  -7.852933865613401 18.02981790715976 0  -8.451536330868826 17.75433340786105 0  -7.851710067847685 16.9884939165967 0  -8.451255299860465 17.25441243986884 0  -7.892977639434526 8.508968245646596 0  -7.842641665285028 9.030227965248706 0  -8.446622009369648 8.754486067268944 0  -7.934007144103727 2.423389514257102 0  -7.859691587177492 2.987059631581971 0  -8.467128721616977 2.711720869776996 0  -7.841467025820333 7.988527086947598 0  -8.446352579114134 8.254477826937098 0  -7.890176152699002 49.98851709697461 0  -8.469610133081749 50.25446881790035 0  -6.148607880219594 41.61122131629832 0  -6.242127206233312 42.0858716277605 0 
[...]
<PointData  Scalars="f_29"> 
<DataArray  type="Float64"  Name="f_29"  format="ascii">3.8253995263617981e+02  3.6930464854516919e+02  3.7354219213294755e+02  3.6456245247175167e+02  3.7824893159968013e+02  3.7397681721076907e+02  3.8238695210722852e+02  3.6915742372711520e+02  3.7338704346778974e+02  3.6440002708437908e+02  3.7810385562421197e+02  3.7388862512826876e+02  5.8106177088443826e+02  5.6750482253649284e+02  5.7183787589510382e+02  5.6262971485445723e+02  5.7667349476130175e+02  5.7235066237623209e+02  5.8116775233707324e+02  5.6826595679111881e+02  5.7198698861636808e+02  5.6283473806394636e+02  5.7741635182979553e+02  5.7367421091845517e+02  9.7400725452170275e+02  9.8826993599643276e+02  9.7865169438227338e+02  9.8319969587182686e+02  9.8366329066051662e+02  9.9336369566913720e+02  9.9318563305323335e+02  9.7966001430221161e+02  9.8355772526964006e+02  9.7393031516897531e+02  9.8927515248349073e+02  9.8538437051121775e+02  7.0988475847879056e+02  7.2374338572496595e+02  7.1441290918303150e+02  7.1887430665151840e+02  7.1927282700588273e+02  7.2865068314699045e+02  7.2879788523476054e+02  7.1510779318692789e+02  7.1943184661037105e+02  7.1005410811662159e+02  7.2445204266654741e+02  7.2009964829786577e+02  1.0123693472114726e+03  1.0267814624718699e+03  1.0171329669430280e+03  1.0218477772225286e+03  1.0220323853536504e+03  1.0317463178066162e+03  1.0125139212249733e+03  1.0268917564134031e+03  1.0172492328532110e+03  1.0219188742474720e+03  1.0221672023198848e+03  1.0318849020985133e+03  7.6597804490125077e+02  7.6802633890180391e+02  7.7229083901261902e+02  7.7861095102728450e+02  7.6172095917693946e+02  7.5746410448793733e+02  8.7878420396841341e+02  8.7669701441890084e+02  8.7239110399818003e+02  8.6600307948839566e+02  8.8309613957042473e+02  8.8740287009993108e+02  8.2222369577008828e+02  8.2014742524439964e+02  8.1588012315002129e+02  8.0953813443174761e+02  8.2649829994311881e+02  8.3076942385241728e+02  1.1950189030869113e+02  1.1759474875227625e+02  1.1368844674536523e+02  1.0787843259032597e+02  1.2341420082200034e+02  1.2732173409323065e+02  5.2631320838644922e+02  5.2830609504435540e+02  5.3245379769104545e+02  5.3860273253923435e+02  5.2217605754615056e+02  5.1803975831846105e+02  6.8067675803654183e+01  6.9882904325729825e+01  7.3824093668695198e+01  7.9582650974520661e+01  6.4132623302898764e+01  6.0198096059105374e+01  1.7132270931008958e+02  1.7315727965001625e+02  1.7716159205438274e+02  1.8300187381104897e+02  1.6732333601018863e+02  1.6332768661043860e+02  2.2349063355706778e+02  2.2155479212937146e+02  2.1759452474000040e+02  2.1170180504419102e+02  2.2745594211260118e+02  2.3141743105828257e+02  2.7601856290071828e+02  2.7407636113008994e+02  2.7007989476198480e+02  2.6414618657865759e+02  2.8002085658038578e+02  2.8401785641329883e+02  3.2897208120946436e+02  3.3086722344897612e+02  3.3495323486294427e+02  3.4094013042875372e+02  3.2489652150964224e+02  3.2081848533093506e+02  4.7204623398406022e+02  4.7397377524865482e+02  4.7812820912447467e+02  4.8421412823205213e+02  4.6790102736056571e+02  4.6375179350033056e+02  3.3057533043695167e+02  3.2569827074157848e+02  3.1601499398651777e+02  3.2087729768762779e+02  3.1124115515588477e+02  4.7368126633150149e+02  4.6871666743327762e+02  4.5885789204577213e+02  4.6380824583163343e+02  4.5398387034269837e+02  2.7427748701320593e+02  2.7914640183543918e+02  2.8873693157637541e+02  2.8386045067190031e+02  2.9341043606632377e+02  5.2804853832122524e+02  5.2304721488933978e+02  5.1317236919542393e+02  5.1812212736127947e+02  5.0833359446524952e+02  2.2174874463785181e+02  2.2658176977679764e+02  2.3609554451150643e+02  2.3126595131975421e+02  2.4075302134318650e+02  1.7286388345716298e+02  1.6809692295869596e+02  1.5862496670073585e+02  1.6337824467041128e+02  1.5395384803422138e+02  6.9599848190320117e+01  6.4899319835681709e+01  5.5559206747391912e+01  6.0256555463213935e+01  5.0968453580084940e+01  1.1778522419168470e+02  1.2255230841277056e+02  1.3193655402694083e+02  1.2716300055146763e+02  1.3650591920494159e+02  8.2036480591450413e+02  8.2556575061199283e+02  8.3581278498492054e+02  8.3061468760980040e+02  8.4083513068801403e+02  8.7691831125377962e+02  8.8215928911225024e+02  8.9248750806729049e+02  8.8723901191832738e+02  8.9752816539453465e+02  7.6776542093129456e+02  7.6261760158878383e+02  7.5245611645101519e+02  7.5755205475418347e+02  7.4748540405829362e+02  4.1664328082637400e+02  4.2144609246618990e+02  4.3118627391744371e+02  4.2624678822523362e+02  4.2634458541983531e+02  4.3611186603410505e+02  9.3732080673066787e+02  9.3223069827346808e+02  9.2190744254596859e+02  9.2713924770250355e+02  9.2698237566118007e+02  9.1670462454706910e+02  6.7454614387038077e+02  6.6960688281732666e+02  6.5965835539514092e+02  6.6466439629759270e+02  6.6453759706445851e+02  6.5469237304457113e+02  6.1616769665919708e+02  6.2109440927568835e+02  6.3107662365542035e+02  6.2601973906010903e+02  6.2610245390730279e+02  6.3610157254296246e+02  9.0717837979898036e+02  9.1715963853111691e+02  9.1191094088942759e+02  6.4536607960663616e+02  6.5501434249010106e+02  6.5001039940788701e+02  6.3568254964169148e+02  6.4076097993021892e+02  4.4079181476496632e+02  4.3351364329188726e+02  4.3848686452102811e+02  4.4941682998841475e+02  4.5658427997362514e+02  4.5167692659413791e+02  6.0625160699271760e+02  6.1612540952905420e+02  6.2208312991278001e+02  6.1219874551905536e+02  6.1814862517593383e+02  9.4768697909272532e+02  9.3740490308311610e+02  9.3122640861447508e+02  9.4149942344474618e+02  9.3531695392432925e+02  6.8452303877009524e+02  6.7457922009814433e+02  6.6857644837204055e+02  6.7850891704207538e+02  6.7249754999051288e+02  4.0696170354276649e+02  4.1659345381897577e+02  4.2240025864821177e+02  4.1275857704483053e+02  4.1855722964229767e+02  3.0238388980846821e+02  3.1160155466825904e+02  3.0678095286577712e+02  2.9319191486996408e+02  2.9792560653427722e+02  1.4529355574784267e+02  1.5431183000255928e+02  1.4959154499558304e+02  4.0988551859115631e+01  5.0594604820479596e+01  4.5952679565716757e+01  1.3629914390453774e+02  1.4092754325635187e+02  8.9728159189060523e+02  9.0238074485749064e+02  7.3981282455477913e+02  7.4863549765023322e+02  7.4363313112572905e+02  4.3051225650181067e+02  4.2838218251219956e+02  4.2453065432569832e+02  9.2007438263956476e+02  9.2360638415449023e+02  9.2769384046111600e+02  6.5780211640556035e+02  6.6123460369878296e+02  6.6514499671988438e+02  6.3286713660069461e+02  6.2944623006374002e+02  6.2550280962061458e+02  5.0352119119402198e+02  5.1077802251158164e+02  5.0591303087071640e+02  7.7930602824345408e+02  7.6836691633161536e+02  7.7896131489315349e+02  8.6529645209495106e+02  8.7634115128750011e+02  8.6565090303309773e+02  8.0882721813404589e+02  8.1979182259621007e+02  8.0918386682466269e+02  1.0722525119384491e+02  1.1726588612057202e+02  1.0755392214886223e+02  8.0148787755004193e+01  7.0167968722562819e+01  7.9868144866622927e+01  5.3942001535328609e+02  5.2871005913169574e+02  5.3901537463553473e+02  1.8357033558222639e+02  1.7344388968057444e+02  1.8328839551272580e+02  2.1103769939487407e+02  2.2122092766254931e+02  2.1137173649878628e+02  2.6348580106045546e+02  2.7374380258924486e+02  2.6381718180158833e+02  3.4167546549476702e+02  3.3123822467645874e+02  3.4131254934664162e+02  4.8482102676535908e+02  4.7427872594898082e+02  4.8452023572125717e+02  4.5790643310261106e+02  4.6082864451657889e+02  4.6497440961236896e+02  3.1436003510063722e+02  3.1758917831303353e+02  3.2166361157144240e+02  2.9038478270299612e+02  2.8720296305267976e+02  2.8319915032921392e+02  5.1192189217953120e+02  5.1498315817962828e+02  5.1911375193337312e+02  2.3754480547719018e+02  2.3448195835808855e+02  2.3051509801088230e+02  1.5714460819222973e+02  1.6023644017449067e+02  1.6423050650499417e+02  5.6341789137593786e+01  5.8270650380912947e+01  6.2203056473037144e+01  1.3355718341213819e+02  1.3044103348632444e+02  1.2652630749720501e+02  7.5114789557031850e+02  7.5430724323232334e+02  7.5856026444692873e+02  8.9425420311828191e+02  8.9083023118181745e+02  8.8651645116456496e+02  8.3735908325672176e+02  8.3406500718167604e+02  8.2978817720125562e+02  7.2995729544508470e+02  7.3430349134389678e+02  1.0029061336336189e+03  9.9305569796829548e+02  9.9808976287176836e+02  1.0028275884059353e+03  9.9410489232425596e+02  9.9800158083990493e+02  1.0123364735745787e+03  1.0075972060056343e+03  1.0124132197601068e+03  1.0077092118729485e+03  2.3989119361942009e+01  3.5049332302301202e+01  2.6550398287421551e+01  2.9107604828234198e+01  3.2482031454843153e+01  1.0748892947595432e+03  1.0749483038357589e+03  1.0823547422365084e+03  1.0750039088479411e+03  1.0823004829605306e+03  1.0897163383429117e+03  1.0748925239682242e+03  1.0749528166322168e+03  1.0823576893492570e+03  1.0823029089698127e+03  1.0897163383429117e+03  1.0448960478162724e+03  1.0333672754477886e+03  1.0383034857985854e+03  1.0449473197983134e+03  1.0334359758609260e+03  1.0383957628552635e+03  1.3117862608422261e+01  1.3170071176523688e+01  6.6069715481657063e+00  1.3218788754680196e+01  6.5580005559187518e+00  0.0000000000000000e+00  3.8845962477645418e+02  3.8184713586570541e+02  3.8980370425165881e+02  3.8050365296085835e+02  3.8712430280909365e+02  5.8727548875050593e+02  5.8049597717633355e+02  5.8864034088565143e+02  5.7913167090766592e+02  5.8591843541387209e+02  7.0370238634873954e+02  7.1061532380138954e+02  7.0235967715449010e+02  7.1195330516749857e+02  7.0503396124036783e+02  9.6894049531927772e+02  9.7607438069482782e+02  9.7334142584856420e+02  9.6622571734270741e+02  9.6349734292424773e+02  1.2962575342266428e+01  1.3092323282895638e+01  6.6081950293607141e+00  6.4779518960740790e+00  0.0000000000000000e+00  3.5963860506206112e+02  3.6681096109744942e+02  3.6212652316614401e+02  5.5764677836731687e+02  5.6499785156317523e+02  5.6015247641239819e+02  7.3362156758987499e+02  7.2624629386701361e+02  7.3112251423855287e+02  9.9303949961975331e+02  1.0029000473641109e+03  1.0028818145223690e+03  1.0123615356628112e+03  1.0028591691208049e+03  1.0123962418359723e+03  9.9413028719848410e+02  7.2906174288773809e+02  7.3891728282999702e+02  7.3802296516928243e+02  3.7026651192707408e+02  3.7207634530375663e+02  3.8003707100216212e+02  3.7212047324270179e+02  3.8188793347386820e+02  5.6739118784979439e+02  5.6986962385514801e+02  5.7801568056167991e+02  5.7053326627376714e+02  5.8115329957283075e+02  9.8000177581106539e+02  9.8160403301788085e+02  9.7174675228090553e+02  7.2274620309720217e+02  7.2142387333955219e+02  7.3038572632688556e+02  7.1122043289168562e+02  7.1254810671909058e+02  7.2081329860703283e+02  1.0201657441473749e+03  1.0210442730679928e+03  1.0115218476534308e+03  1.0210088875171139e+03  1.0294334717557695e+03  1.0285895148692339e+03  1.0370126985531715e+03  9.8269405700867833e+02  9.9143853367790030e+02  1.0294662689417696e+03  3.8953744640179099e+02  3.8176279818187135e+02  3.8967026721038945e+02  5.8837355339199200e+02  5.8102623641605271e+02  5.8850723682687976e+02  7.0271587301594673e+02  7.1140690144073642e+02  7.0254706939115192e+02  3.0837385657341804e+02  2.9637961186808332e+02  1.5122069637675378e+02  4.8666142485631653e+01  1.3942102614618486e+02  9.0071184771923151e+02  9.7350051788010342e+02  9.6525399204655946e+02  9.6700009890858519e+02  9.7618808910762129e+02  3.0242844027309121e+02  2.9640461372200684e+02  3.0240839597286737e+02  3.0839294546062609e+02  1.4534305110775324e+02  1.3944825945055274e+02  1.4532049722009916e+02  4.2469219692037633e+01  4.9405440719228409e+01  4.1732033452936861e+01  1.5124257761017293e+02  9.0722037893896027e+02  9.0073500167414932e+02  9.0720158680178122e+02  3.5377377339428847e+02  3.6495957269285202e+02  3.6201909393144683e+02  3.5671148173072737e+02  5.5174301935739300e+02  5.6252134862194555e+02  5.5956573415191724e+02  5.5469846304175178e+02  7.2817907383872159e+02  7.3581955340619038e+02  7.4547554237239626e+02  7.4458588177021556e+02  1.0629134018844547e+03  1.0502296811957224e+03  1.0592394595701587e+03  1.0555669210327326e+03  1.0539035257854919e+03  1.0629144804343966e+03  1.0502471437674867e+03  1.0592421793920694e+03  1.0539232464630131e+03  1.0409769460550885e+03  1.0409495275623813e+03  2.4688136000094116e+02  2.3914437848381888e+02  2.4384589802262312e+02  8.4742036287103588e+02  8.3908940849529256e+02  8.4415576120516994e+02  9.1362795089239421e+02  6.3910696889772453e+02  6.5158033281505539e+02  9.1364623814902984e+02  6.4530937585847812e+02  6.3908812483510962e+02  6.4533471724665560e+02  6.5155599330717337e+02  4.4504690298803416e+02  4.5366192612938380e+02  4.5147671393568879e+02  4.4723103388207721e+02  5.2635252628963212e+02  5.1729053032963930e+02  5.2721239918085928e+02  2.7588068573041130e+02  2.7508110676353249e+02  2.8465277003601386e+02  3.2887319485314288e+02  3.2004329199709690e+02  3.2972628263205877e+02  4.7195163182409522e+02  4.6295819359225089e+02  4.7281868423221994e+02  6.7959405489394939e+01  5.9449835549953960e+01  6.8781943787951832e+01  1.1935223372100984e+02  1.1857002747265284e+02  1.2793749143199447e+02  1.7119488986112569e+02  1.6256115487391108e+02  1.7203137423057476e+02  2.2334010178659676e+02  2.2254615209033150e+02  2.3205037565267176e+02  8.2208486868763669e+02  8.2122675562302493e+02  8.3146322214108318e+02  8.7864810393964615e+02  8.7778538602656897e+02  8.8809496755476948e+02  7.6601903707032113e+02  7.5669841956472146e+02  7.6690439575395067e+02  3.6425525505198203e+02  3.5601277653822842e+02  3.5824079288819684e+02  5.6198141055221788e+02  5.5415844103822099e+02  5.5656611075017963e+02  4.9722015681676623e+02  4.9137081158485449e+02  4.9792592818328092e+02  4.9066590096663435e+02  4.9651542862628241e+02  7.9341777122214205e+02  7.8669307815616764e+02  7.9406950281556374e+02  7.8603174000000263e+02  7.9277939785896979e+02  7.9472517811518128e+02  8.0144605505848347e+02  8.0210516848053123e+02  7.9538331621084183e+02  5.0771766611446094e+02  5.0071990402423580e+02  5.0492353917136785e+02  3.6606312889292121e+02  5.6511962462220242e+02  3.5786080766089491e+01  3.8476323850883074e+02  5.8349827071420236e+02  9.7147476468277614e+02  7.0745473677522386e+02  3.6133266749301885e+02  5.5971452195174504e+02  4.3564613993165216e+02  4.3777845447332481e+02  4.4291923399683338e+02  6.0465433471669405e+02  6.1531898732835418e+02  6.0545473948496738e+02  9.4933602489767839e+02  9.3822911488912609e+02  9.4851657802254908e+02  6.8595965629843261e+02  6.7529444269087298e+02  6.8524558163183406e+02  4.0561818543883180e+02  4.1591537990417106e+02  4.0629186165341446e+02  1.9730129330598800e+02  2.0418402662948358e+02  1.9733447524516245e+02  2.0415110189040601e+02  1.9726764420748015e+02  1.9045037790335149e+02  1.9041647144842099e+02  9.3682615985641178e+01  1.0046740224070585e+02  9.3713026995885258e+01  1.0043666107765597e+02  9.3651839343695556e+01  8.6928237448783150e+01  8.6897905040688116e+01  1.0462890462192606e+03  4.1814997034895396e+02  4.1740887805275730e+02  4.2708827640630665e+02  9.3568459982683510e+02  9.2618124607914456e+02  9.3650288897861253e+02  6.7300718031555834e+02  6.6378853288105893e+02  6.7378478779723196e+02  6.1770696911031723e+02  6.1694840220720778e+02  6.2686696289197221e+02  5.0894616744596550e+02  5.0343420803977500e+02  5.0272960253073239e+02  8.0519267625674502e+02  7.9963099966114783e+02  7.9898056766484808e+02  7.8295571999695278e+02  7.8851132802943528e+02  7.8916732394999713e+02  2.5097136096362868e+02  2.4221130265030607e+02  2.4425619964895924e+02  2.4892955263334159e+02  8.5181632670222302e+02  8.4238800868701276e+02  8.4458549248865438e+02  8.4962139375887978e+02  0.0000000000000000e+00  0.0000000000000000e+00  6.6086008642520868e+00  1.0897163383429117e+03  1.0897163383429117e+03  1.0823581991061717e+03  1.0897163383429117e+03  0.0000000000000000e+00  3.8605230611890073e+02  5.8478802140588436e+02  9.7046939394924823e+02  7.0640990141373425e+02  1.0688984857013522e+03  1.0689558631137927e+03  1.0689018340058017e+03  1.0689577511443051e+03  5.1777407657569654e+01  4.3834960183598433e+01  5.1441344552643550e+01  5.1129482625990299e+01  4.4183664868513375e+01  3.6573354869846554e+01  3.9757530452097114e+02  3.9771092783858188e+02  5.9651271652194987e+02  5.9664694865231888e+02  6.9433652848817542e+02  6.9415790024771104e+02  9.5816252507154843e+02  9.5641582117148312e+02  3.4995275289433863e+02  3.4772245299510803e+02  5.4798897219354649e+02  5.4558434635803553e+02  3.3915845422101143e+01  3.5278304567786414e+01  4.2506190109543141e+01  1.8549688264476590e+01  1.8605740700532817e+01  2.5518341734986228e+02  2.5722418910683353e+02  8.5635777148388445e+02  8.5855201775877060e+02  2.3159943196606264e+01  1.8057851055240608e+01  1.8187701909693594e+01  2.5260941557345566e+02  2.6091890761309605e+02  2.5838530684839367e+02  8.5359010854292865e+02  8.6253551624324507e+02  8.5980604607878763e+02  4.0178638920496115e+02  3.9579209684143120e+02  3.9445368144963783e+02  6.0117354558087277e+02  5.9490418933754142e+02  5.9354381353327801e+02  6.8959944853240188e+02  6.9597704514208692e+02  6.9731597360974251e+02  9.5357270368692195e+02  9.5853510278727128e+02  9.6124679673799426e+02  3.5241409992315528e+02  3.4413612660435660e+02  3.4655877996292406e+02  5.5056547900393321e+02  5.4199887102180560e+02  5.4455388956378761e+02  3.3190918412994897e+01  2.4702699636911390e+01  2.5408673432747744e+01  8.5986621556138584e+02  8.5005032031870905e+02  8.4602485796342739e+02  8.4024027000909427e+02  8.5584203627834279e+02  1.4538804554199371e+02  1.5006108251882912e+02  1.5477916266737270e+02  1.4067285510905688e+02  1.3600684486208482e+02  3.1109689783427177e+02  3.0198480446997092e+02  2.9765282326286047e+02  2.9288422782588685e+02  3.0676299793130789e+02  1.8875720104560071e+02  1.9732672749043900e+02  2.0161919399378786e+02  2.0591013970196963e+02  1.9304536916274418e+02  8.5252120869957409e+01  9.3703512792662295e+01  9.7936574804788265e+01  1.0216722952499688e+02  8.9482211819351477e+01  2.5845007090263346e+02  2.4559621857575289e+02  2.5471187248134552e+02  2.4933589637546785e+02  2.4022717092930620e+02  3.4450711264379026e+02  3.4914378974384141e+02  3.5206780378157191e+02  5.4278159302825838e+02  5.4726388405811747e+02  5.5021056570199676e+02  7.4939590213311692e+02  7.4370655435409026e+02  7.4151024472992947e+02  4.3429596558285459e+02  4.3967230140336761e+02  4.4185143856139933e+02  4.8934426254832374e+02  4.9363747544468202e+02  4.9643136274269693e+02  4.4783330075627441e+02  4.4995614825278631e+02  4.5486580189117558e+02  6.3569603924800413e+02  6.5023415397187352e+02  6.4050135223888708e+02  6.4542602761299077e+02  6.5516292852464710e+02  9.1719084398007271e+02  9.0705794845277990e+02  9.0207600040964098e+02  8.9693885573153864e+02  9.1220659729881686e+02  3.2837270445198307e+01  3.9525809935407466e+01  3.3612307124979156e+02  3.3858123896211424e+02  4.7925023202400899e+02  4.8740925358181107e+02  4.8183631417007814e+02  4.8997885699938348e+02  1.7821609601128134e+02  1.8604779824409295e+02  1.8069028935048860e+02  1.8849745379158890e+02  7.7353665359721026e+02  7.8203483150479121e+02  7.7622747726824957e+02  7.8470726959620958e+02  2.1639282523926937e+02  2.0848249381270239e+02  2.1383483115068509e+02  2.0595645730588660e+02  8.7110800981970124e+02  8.6834189895520296e+02  8.1459574910024685e+02  8.0608200042679039e+02  8.1184805254777928e+02  8.0337507269133562e+02  1.1250523097373987e+02  1.0470718455754178e+02  1.0998352018103506e+02  1.0221880947686648e+02  7.4873175048209703e+01  8.2593718527213326e+01  7.7314757763063611e+01  8.5009275613886828e+01  2.6888214278331213e+02  2.6631104155514703e+02  5.3373457039265520e+02  5.3627394974394520e+02  6.0777073539088565e+02  6.0205020860412299e+02  5.9947462806356441e+02  6.1040816087149915e+02  6.8299832115627294e+02  6.8875941298662497e+02  6.9152331649710868e+02  6.8024917780100463e+02  9.4602666030192563e+02  9.5205303797470276e+02  9.5472100771464375e+02  9.4332563005235420e