<?xml version="1.0"?>
<VTKFile type="UnstructuredGrid"  version="0.1"  >
<UnstructuredGrid>
<Piece  NumberOfPoints="2690" NumberOfCells="4864">
<Points>
<DataArray  type="Float64"  NumberOfComponents="3"  format="ascii">-5.068516671056308 22.01499310224166 0  -5.659505939723023 21.27763155126086 0  -5.067165708024416 21.51621986986227 0  -5.06556735801069 21.01506614140214 0  -5.660861069593374 21.77790707791891 0  -6.253201337515446 21.5384029463154 0  -9 21.99999999996945 0  -8.406879386769884 21.26563309397524 0  -9 21.49999999997139 0  -9 20.99999999997333 0  -8.407119914457711 21.76561564057098 0  -7.814013883578034 21.53119184264669 0  -9 32.9999999999446 0  -8.412142212925296 32.26558412390402 0  -9 32.49999999994358 0  -9 31.99999999994255 0  -8.412382488997183 32.76558875710799 0  -7.824537613444374 32.53114169073107 0  -5.103431956969822 33.01620418623808 0  -5.607877813623286 32.31239258106179 0  -5.102022738168082 32.51835832660385 0  -5.100319547629674 32.01567939601922 0  -5.60928030924829 32.81280850371718 0  -6.115123161154156 32.60708769474587 0  -5.171129557009918 54.0154405720933 0  -5.750385269822027 54.75222257438871 0  -5.749047465065735 54.2528683701407 0  -6.326758862351532 54.48802874422708 0  -5.172702525188771 54.51659025407752 0  -5.174089970462088 55.01559950559182 0  -9 54.99999999998974 0  -8.492708030143984 54.29875798218632 0  -9 54.49999999998872 0  -9 53.99999999998769 0  -8.49292020150598 54.79869326808185 0  -7.985672279257074 54.59740749228993 0  -9 39.99999999995897 0  -8.416223497032743 40.74053448194586 0  -8.415983142404391 40.2405379098056 0  -7.832195953325562 40.4810307007912 0  -9 40.49999999996 0  -9 40.99999999996102 0  -5.128980122796195 41.01432904202516 0  -5.684990624106736 40.28324749094675 0  -5.127582647677926 40.51665820277672 0  -5.126012421645161 40.01613702508894 0  -5.686347677431812 40.78300463799516 0  -6.243755488868281 40.54905578169265 0  -9 55.99999999999179 0  -8.447640249277784 56.74613533632142 0  -8.447430626095933 56.24609440490951 0  -7.895080689842084 56.49218817719169 0  -9 56.49999999999282 0  -9 56.99999999999384 0  -5.177596010490261 56.01474221135637 0  -5.732135623379805 56.75812344821473 0  -5.730817660638871 56.25806019199685 0  -6.283785534747985 56.49951441533269 0  -5.17926657286549 56.51708684366691 0  -5.180649810128171 57.01564751696219 0  -7.49044137798077 43.00849146906656 0  -6.671514344139439 43.12143610848758 0  -7.260498339784374 43.34726978208274 0  -7.030679385390663 43.68605963485371 0  -6.90133074813878 42.7825646735132 0  -6.312005226317851 42.55664297170597 0  -6.656658151868331 49.01603915948687 0  -7.471643850111048 48.90219349052308 0  -6.885336983611633 48.67714794041568 0  -7.114157927901233 48.33820805902577 0  -7.242835776886661 49.24105311856997 0  -7.828783871611508 49.46618183930838 0  -6.650825091796097 46.01506346544535 0  -7.467841680931657 45.90156212553759 0  -6.880096214651782 45.67599490763628 0  -7.109500869904349 45.33700408606886 0  -7.238445756465985 46.24054140796213 0  -7.825849343528501 46.46596299920679 0  -6.575559087896747 7.015589444224694 0  -7.418758894660861 6.9019781368948 0  -6.812200264774655 6.676689840876652 0  -7.048975636431511 6.337793779096256 0  -7.181992371490721 7.240871613435545 0  -7.788210107759486 7.466142713078726 0  -7.474239392563104 30.00839567378514 0  -6.646515569838308 30.12122233195837 0  -7.241830019657549 30.34694329350171 0  -7.009548429854802 30.68543852605271 0  -6.878799816604434 29.78262450219119 0  -6.283139387934758 29.55693731455532 0  -6.570028567198904 4.014840642097932 0  -7.415439245460794 4.11785389026242 0  -6.80833644917921 4.350856692395357 0  -7.046532759438714 4.686824007924069 0  -7.177250470008432 3.781856502725121 0  -7.784658074048211 3.548969495639054 0  -6.581227268858181 10.01572228285488 0  -7.42271592402092 10.11844341097115 0  -6.818459032756302 10.35154188783076 0  -7.055573843064136 10.68736225987098 0  -7.18559067372788 9.782638606494841 0  -7.790175318344823 9.549536160402306 0  -6.586910649063125 13.01586272240277 0  -7.426153227352795 12.9021981578121 0  -6.822433066337917 12.67696827770737 0  -7.05808882655512 12.338078684641 0  -7.190501331078097 13.24111050143367 0  -7.79388190987026 13.46631425455969 0  -6.59262814674404 16.01610542285531 0  -7.429889760852317 15.9022696519274 0  -6.82758900522675 15.677228927351 0  -7.062686732305308 15.33831320723503 0  -7.194803502132417 16.24112738920471 0  -7.796756835479827 16.4662401007781 0  -6.598495767390498 19.01442464298733 0  -7.433992239635808 19.1174285067129 0  -6.834086525294591 19.34998436860206 0  -7.069539678065276 19.68563528553847 0  -7.198527232538892 18.78173061146153 0  -7.798791509216747 18.54899502060746 0  -6.613969091514786 27.01388594058894 0  -7.4440848143224 27.11709137840161 0  -6.848022989594551 27.34975046559363 0  -7.081953928789016 27.68563686594167 0  -7.21015094577161 26.78111925702611 0  -7.806548454565871 26.54847896935394 0  -8.279976008729003 19.09815036806549 0  -8.039438457100376 18.82354891648294 0  -8.399262156709337 18.27453953846557 0  -8.63982580458981 18.54914114218205 0  -9 17.99999999998495 0  -8.284618417546714 27.09798068072005 0  -8.045636217914087 26.82323174156835 0  -8.403144322887355 26.27422556640035 0  -8.642151608510833 26.54898748077526 0  -9 25.99999999995395 0  -8.278107726960426 15.91087737331963 0  -8.037378526548244 16.18856728272105 0  -8.398509292088178 16.73308616277546 0  -8.639212404922993 16.45541405623445 0  -9 16.99999999998883 0  -5.808032418204831 30.11224757193425 0  -6.045528893919651 29.83457521422906 0  -5.687137997327039 29.28950622743782 0  -5.449625892049744 29.56788593809446 0  -5.090543702258148 29.01498095269354 0  -8.276387753906581 12.91087092120409 0  -8.035081992026402 13.18858944204136 0  -8.397068658504789 13.73316367901619 0  -8.638349882971415 13.45544274288125 0  -9 13.99999999999401 0  -8.274791524162522 10.09862598071795 0  -8.032535076045535 9.824081678660825 0  -8.394959119395006 9.274765639571477 0  -8.637241471727743 9.549310012821632 0  -9 8.99999999999857 0  -8.271457087549845 4.098346916199845 0  -8.028104240242351 3.823670684367785 0  -8.392225714348582 3.274462996532996 0  -8.635592254816221 3.549142359504903 0  -9 2.999999999998668 0  -8.272989892873934 6.910760829357182 0  -8.030547413661147 7.188448797828674 0  -8.394232181788693 7.733075794513486 0  -8.636649531874932 7.455389557583235 0  -9 7.999999999999485 0  -8.295556496183666 45.91056911248549 0  -8.060649671523491 46.18824846454638 0  -8.413054520814818 46.73300906513733 0  -8.647935628843406 46.45533127828947 0  -9 46.99999999997333 0  -8.297305683895424 48.91083380827462 0  -8.062989554751049 49.1885163993913 0  -8.41452584003058 49.73305558684655 0  -8.648815345296809 49.45539492616092 0  -9 49.99999999997949 0  -5.84196327008881 43.11243171015305 0  -6.076926070623032 42.83453306752473 0  -5.722338492130744 42.2890039734539 0  -5.487365854832999 42.56769340304439 0  -5.132054046604687 42.01436693978767 0  -5.787388495361234 23.93484404193861 0  -6.032134179529948 24.20095788511145 0  -5.677409811269649 24.7445608965866 0  -6.276766026706159 24.46712200514653 0  -5.432751533655477 24.4791576834413 0  -5.07813401009201 25.01489096019275 0  -8.303754465002337 52.08787531409083 0  -8.065013448035762 51.82166953457226 0  -8.412943244908389 51.2777950124537 0  -7.8261628444897 51.55550631458235 0  -8.651714980015306 51.54399990975513 0  -9 50.99999999998153 0  -5.824254073478519 38.10199664718831 0  -6.064904021099023 37.83254018418132 0  -5.711158650281393 37.29228777813867 0  -6.305665374952252 37.56313229111615 0  -5.470490513592205 37.56260052689591 0  -5.11600346023303 37.01369893296482 0  -5.815976909675932 34.93470010288293 0  -6.058561013931168 35.20070621690357 0  -5.707023234384547 35.7441210189374 0  -6.301031600843654 35.46676004219593 0  -5.464516615503068 35.47893278818042 0  -5.113110188656001 36.0141988752455 0  -7.928266023888668 50.50714602565855 0  -7.877190422091793 51.03134524471088 0  -8.464246661327527 50.75353337143414 0  -6.199128649930023 36.51480212050343 0  -6.252413706908019 37.03887416887603 0  -5.657637526619983 36.76690342174886 0  -6.250058893716254 35.990681704216 0  -5.656266819205577 36.26673327688916 0  -6.036434423151062 25.2762417210179 0  -6.156568189170447 24.87171355272259 0  -5.557393990387673 25.14830640670472 0  -8.047078174347106 25.75120299709086 0  -7.926774723567506 26.14984045117518 0  -8.523587111636937 25.87560399362919 0  -6.99789220209109 34.38683873960905 0  -6.649305150987384 34.92688616985285 0  -6.899775735193098 35.24995875959071 0  -7.248382356363279 34.71003604839974 0  -7.49873793865416 35.03320658604082 0  -7.138474352872918 52.63500826433768 0  -7.482157007749025 52.09533797272658 0  -7.235278194226316 51.77249817973717 0  -6.89161150331422 52.3122149741797 0  -6.644609555905372 51.98946461766251 0  -7.004879385076853 38.63493899348953 0  -6.655429109941364 38.09912231917056 0  -6.90412601255345 37.77311693297785 0  -7.253560773876197 38.30906640302027 0  -7.502375644266662 37.98316098797656 0  -6.97992643551799 23.38691870830312 0  -6.628191850880218 23.92707395285494 0  -6.880897625156586 24.25021482274251 0  -7.232653671383936 23.71016500760255 0  -7.485247678348056 24.03336922951793 0  -7.899055681698014 17.50702704561311 0  -7.848900388766096 18.02803352264646 0  -8.449639684865003 17.75347274295467 0  -7.84792685777899 16.9866417694502 0  -8.449416156561185 17.25353613606798 0  -7.891203228816701 8.507188658984049 0  -7.84066913391663 9.028363846825364 0  -8.445708633212975 8.753595911328734 0  -7.933468634597209 2.421842956888364 0  -7.859020292341535 2.985387286605909 0  -8.466835208399175 2.710942490054515 0  -7.83972775050876 7.986669617148235 0  -8.445492697088895 8.253589276911914 0  -7.878546634866725 49.98667283241426 0  -8.464018487846786 50.25359655352074 0  -6.124023770960804 41.60763381422483 0  -6.218051633403649 42.08220420811052 0  -5.62
[...]
<PointData  Scalars="f_29"> 
<DataArray  type="Float64"  Name="f_29"  format="ascii">3.9631958116205766e+02  3.8267067208788689e+02  3.8704278841165274e+02  3.7778282458243001e+02  3.9189205765712398e+02  3.8749331646447615e+02  3.9619729323444375e+02  3.8255174938584378e+02  3.8691859478769271e+02  3.7765296401100102e+02  3.9177451672564780e+02  3.8742206191110085e+02  6.0047235359217234e+02  5.8655679082652182e+02  5.9100833302519061e+02  5.8156003119731406e+02  5.9596296375171835e+02  5.9152207769150220e+02  6.0054919075589328e+02  5.8731109107300529e+02  5.9113075903975550e+02  5.8173798013009730e+02  5.9669779053069078e+02  5.9286251293730015e+02  1.0016749780849204e+03  1.0161746943425237e+03  1.0063966698034951e+03  1.0110243312796748e+03  1.0114919205588213e+03  1.0213526561053436e+03  1.0211996143752752e+03  1.0074484041894441e+03  1.0114145415553779e+03  1.0016291201739563e+03  1.0172199942118997e+03  1.0132608996511599e+03  7.3239845841619911e+02  7.4656330358364244e+02  7.3702334527329685e+02  7.4157868200835173e+02  7.4199824654616748e+02  7.5158682534557863e+02  7.5170377637535989e+02  7.3770775414775289e+02  7.4212956951195974e+02  7.3254225913733615e+02  7.4725910648292847e+02  7.4281440146568571e+02  1.0406890454786349e+03  1.0553246822470430e+03  1.0455237140712936e+03  1.0503074765007962e+03  1.0505048687896729e+03  1.0603732514579465e+03  1.0408101072027973e+03  1.0554159942383064e+03  1.0456203208425334e+03  1.0503664740414436e+03  1.0506165871421645e+03  1.0604879816835999e+03  7.8971394127829649e+02  7.9180076135947888e+02  7.9615929443826803e+02  8.0261086892913977e+02  7.8536131745621037e+02  7.8100974693324019e+02  9.0478696081489556e+02  9.0266839376813812e+02  8.9827543850003292e+02  8.9176808383533205e+02  9.0918483907290329e+02  9.1357779653578098e+02  8.4712271707838954e+02  8.4501156228640514e+02  8.4065172815545122e+02  8.3418181291176450e+02  8.5148841272215191e+02  8.5585127681918095e+02  1.2426284664672932e+02  1.2229130348340580e+02  1.1822940034010277e+02  1.1219873255132339e+02  1.2832974288239868e+02  1.3239225693406252e+02  5.4426699113702045e+02  5.4630856177064732e+02  5.5057069949037179e+02  5.5688171289919489e+02  5.4001387026545763e+02  5.3576147408375562e+02  7.0827245388968080e+01  7.2721408623076002e+01  7.6813196805033698e+01  8.2801031092842024e+01  6.6740337147060728e+01  6.2654336119062506e+01  1.7801694534934890e+02  1.7992827388942541e+02  1.8407128539689256e+02  1.9012679773918248e+02  1.7387798172446963e+02  1.6974271229705019e+02  2.3205796780466352e+02  2.3006330646887983e+02  2.2595652346577452e+02  2.1985782307298157e+02  2.3616886177621404e+02  2.4027631907034285e+02  2.8639595692232348e+02  2.8439675147633670e+02  2.8025923968636579e+02  2.7412659668337153e+02  2.9053820228983705e+02  2.9467544056887289e+02  3.4108858182658537e+02  3.4305033527119440e+02  3.4726115997005979e+02  3.5343882477827242e+02  3.3688657585555262e+02  3.3268298530213502e+02  4.8849198357284803e+02  4.9047985366069923e+02  4.9474705685634808e+02  5.0100565740832064e+02  4.8423228323478662e+02  4.7996929422468287e+02  3.4275766727722896e+02  3.3772183490085774e+02  3.2773123508441893e+02  3.3275310865088244e+02  3.2281032802526607e+02  4.9018703758453177e+02  4.8507838727252744e+02  4.7494099589930073e+02  4.8003609546051445e+02  4.6993332052260524e+02  2.8461450295062826e+02  2.8964373053040777e+02  2.9955899136984658e+02  2.9452305651017093e+02  3.0439425483114411e+02  5.4604307897054764e+02  5.4090510294479407e+02  5.3075560037895002e+02  5.3584895950981104e+02  5.2577822941995782e+02  2.3027486378678029e+02  2.3527431984064290e+02  2.4512561138199399e+02  2.4013074883112975e+02  2.4995308758728837e+02  1.7963509664703952e+02  1.7469012456608644e+02  1.6487429199935960e+02  1.6980611050446382e+02  1.6003822175321881e+02  7.2436171198363979e+01  6.7545638429510760e+01  5.7836236218936357e+01  6.2724523148067881e+01  5.3067390745585776e+01  1.2249900296714381e+02  1.2744452278685543e+02  1.3718925889735314e+02  1.3223810515425293e+02  1.4193834375111891e+02  8.4524263735612396e+02  8.5054560943726290e+02  8.6100204018933960e+02  8.5570320099833054e+02  8.6613069006586852e+02  9.0290302904048826e+02  9.0823913824772387e+02  9.1876313799255820e+02  9.1342034083236956e+02  9.2390145682260368e+02  7.9153322338321652e+02  7.8627421824842463e+02  7.7588926754000852e+02  7.8110298068845600e+02  7.7080601933256901e+02  4.3147144226620469e+02  4.3641567546030279e+02  4.4643589069238601e+02  4.4135835914246286e+02  4.4146103922740900e+02  4.5149829814416540e+02  9.6439592160821542e+02  9.5921457373404485e+02  9.4871477761265055e+02  9.5403158506073191e+02  9.5388161815877913e+02  9.4342835252477767e+02  6.9623116683320984e+02  6.9117471464446646e+02  6.8098483143435487e+02  6.8611506226961137e+02  6.8598918907396455e+02  6.7589487615400378e+02  6.3644452301638762e+02  6.4149155684764344e+02  6.5171119424246342e+02  6.4653762350084037e+02  6.4662423892664992e+02  6.5684913562045915e+02  9.3371650003041464e+02  9.4387566202031462e+02  9.3853975762873165e+02  6.6634628994981347e+02  6.7623108067959174e+02  6.7109713439906841e+02  6.5643221950574070e+02  6.6162599753845666e+02  4.5632324951414159e+02  4.4883557513010760e+02  4.5394509141722727e+02  4.6522269939071441e+02  4.7259642026847519e+02  4.6755331982579918e+02  6.2628447008356966e+02  6.3640299643938977e+02  6.4250895939017960e+02  6.3238173647505732e+02  6.3848126505282323e+02  9.7492938568870807e+02  9.6447297409506928e+02  9.5818462585934424e+02  9.6863322105603902e+02  9.6234129433326916e+02  7.0644311986488879e+02  6.9626648116505123e+02  6.9012362704771738e+02  7.0029072775483280e+02  6.9414060018152441e+02  4.2150251808171703e+02  4.3142186704231301e+02  4.3740276003397656e+02  4.2747540446462409e+02  4.3344951266625026e+02  3.1365051842265854e+02  3.2316796464704220e+02  3.1819697073409685e+02  3.0415449200200965e+02  3.0905179822214870e+02  1.5104153161617143e+02  1.6039409374137514e+02  1.5550585965197172e+02  4.2673107939329732e+01  5.2665967886042353e+01  4.7843372307012061e+01  1.4170882863743353e+02  1.4651877683349778e+02  9.2363858206149121e+02  9.2883764712057109e+02  7.6296615777770353e+02  7.7198625656009278e+02  7.6686682761948555e+02  4.4575488258783849e+02  4.4355895677438861e+02  4.3959866362866063e+02  9.4683444168538279e+02  9.5043253252337354e+02  9.5458635019485689e+02  6.7909295295663571e+02  6.8260494773167738e+02  6.8661280073223645e+02  6.5355638468509380e+02  6.5004948814565967e+02  6.4601460223425545e+02  5.2083745645448005e+02  5.2829798011142213e+02  5.2329027290645024e+02  8.0331409961177428e+02  7.9214689663916215e+02  8.0296499553437286e+02  8.9105610161950369e+02  9.0230983490030872e+02  8.9141279020057789e+02  8.3346491551503561e+02  8.4465282137271686e+02  8.3382413752268610e+02  1.1152908456351108e+02  1.2195425180254696e+02  1.1186554341799587e+02  8.3397732596363127e+01  7.3021730650571641e+01  8.3101430152049460e+01  5.5771520229000134e+02  5.4672171822838845e+02  5.5730223061403694e+02  1.9072611115910595e+02  1.8023030287133943e+02  1.9042843291350351e+02  2.1917976440256675e+02  2.2972249598022199e+02  2.1952033565628847e+02  2.7345258153226450e+02  2.8405730237602046e+02  2.7379033046994584e+02  3.5420518381604137e+02  3.4343678020723411e+02  3.5382639876145953e+02  5.0163690771246604e+02  4.9079685791248960e+02  5.0132356064929741e+02  4.7394919158892031e+02  4.7695871614555159e+02  4.8121928765219332e+02  3.2600890732747337e+02  3.2934576060052984e+02  3.3354684086157948e+02  3.0124599442465052e+02  2.9796223962382760e+02  2.9381880182250416e+02  5.2948053201675418e+02  5.3262285819163048e+02  5.3687070032428142e+02  2.4660855106342333e+02  2.4344323904210239e+02  2.3933099683938397e+02  1.6332319631550075e+02  1.6653297779201745e+02  1.7066762188710626e+02  5.8636702360427542e+01  6.0645905974670860e+01  6.4730768702791451e+01  1.3885504822620408e+02  1.3562512668557534e+02  1.3155612604746153e+02  7.7455910586354992e+02  7.7778531139702602e+02  7.8213461349912586e+02  9.2054785134429846e+02  9.1706439414907504e+02  9.1266502969638134e+02  8.6256505093254191e+02  8.5920887799303523e+02  8.5484113124440569e+02  7.5289101090169470e+02  7.5733280938484074e+02  1.0310529566729658e+03  1.0210413704531974e+03  1.0261587752469306e+03  1.0309872304531741e+03  1.0221232110146108e+03  1.0260882378314898e+03  1.0406464626117379e+03  1.0358364105308044e+03  1.0407103773286201e+03  1.0359292301058667e+03  2.4979480597937989e+01  3.6489185963065331e+01  2.7643305376121024e+01  3.0303529190538359e+01  3.3819816258370871e+01  1.1041563269420262e+03  1.1042152092285387e+03  1.1117284988899253e+03  1.1042709368774201e+03  1.1116739802342122e+03  1.1191956140709408e+03  1.1041601565179731e+03  1.1042195562512345e+03  1.1117313325351022e+03  1.1116767100025943e+03  1.1191956140709408e+03  1.0737163649903391e+03  1.0620081903814316e+03  1.0670264138323157e+03  1.0737576725563674e+03  1.0620648169088252e+03  1.0671019187402708e+03  1.3662965644361556e+01  1.3714935494980564e+01  6.8804499419915022e+00  1.3764559272312871e+01  6.8307437826424398e+00  0.0000000000000000e+00  4.0244056348250007e+02  3.9562192326052127e+02  4.0381982914767156e+02  3.9424381975398654e+02  4.0107066344463340e+02  6.0683033106316930e+02  5.9987410280776305e+02  6.0822467944224536e+02  5.9848056871325616e+02  6.0544430069461077e+02  7.2606413910458116e+02  7.3313068551318543e+02  7.2468591573000481e+02  7.3450443221060334e+02  7.2743113102914822e+02  9.9653019527457707e+02  1.0037809743430801e+03  1.0010086780956208e+03  9.9377478323068806e+02  9.9100541083867051e+02  1.3499783559854034e+01  1.3633262979644217e+01  6.8815835614441028e+00  6.7471938487784149e+00  0.0000000000000000e+00  3.7270918496910394e+02  3.8010408778029029e+02  3.7527043927833535e+02  5.7643717621796850e+02  5.8397905702667583e+02  5.7901333325868916e+02  7.5665700881908117e+02  7.4911640599330428e+02  7.5410762490850584e+02  1.0210285314613651e+03  1.0310479983995258e+03  1.0310329779098413e+03  1.0406674748488381e+03  1.0310140836562582e+03  1.0406963412165369e+03  1.0221442884476056e+03  7.5198041681747156e+02  7.6205461840060332e+02  7.6114519009132880e+02  3.8367773541175853e+02  3.8554845384744493e+02  3.9375103596493824e+02  3.8558412325832006e+02  3.9565502841161890e+02  5.8642511408072085e+02  5.8897199269622479e+02  5.9732536408406611e+02  5.8964394398671277e+02  6.0054017435059723e+02  1.0077829105703481e+03  1.0094067707324334e+03  9.9939154048778187e+02  7.4552863902800391e+02  7.4417221574785231e+02  7.5333808151740084e+02  7.3374164912195295e+02  7.3510270545048490e+02  7.4355663131333790e+02  1.0485918731786633e+03  1.0494809394991998e+03  1.0398108241743043e+03  1.0494515658872292e+03  1.0580089059634020e+03  1.0571482254539742e+03  1.0657035511316974e+03  1.0105226749574651e+03  1.0194051717487043e+03  1.0580360064363285e+03  4.0353704049164406e+02  3.9552007026116235e+02  4.0367719931104841e+02  6.0794304927070471e+02  6.0040486138775088e+02  6.0808345358835140e+02  7.2504306258551287e+02  7.3392737129545480e+02  7.2487315597634665e+02  3.1983186984865722e+02  3.0744381620587421e+02  1.5718435110098628e+02  5.0656560382284958e+01  1.4494410233535396e+02  9.2712794645819565e+02  1.0011789619957617e+03  9.9279507262583195e+02  9.9457509832133064e+02  1.0039142451264015e+03  3.1368677409505943e+02  3.0746460568244169e+02  3.1367058725857146e+02  3.1984681627407826e+02  1.5108263322007406e+02  1.4496720357435271e+02  1.5106393088053935e+02  4.4205930901423137e+01  5.1421410085687342e+01  4.3442359878857836e+01  1.5720197602520795e+02  9.3374965846638236e+02  9.2714673696683610e+02  9.3373499877338202e+02  3.6667301414431716e+02  3.7819995695797758e+02  3.7517417355695471e+02  3.6969615384077696e+02  5.7036853959883138e+02  5.8143382106606043e+02  5.7839549721803644e+02  5.7340639124780444e+02  7.5108808161293257e+02  7.5889811710658398e+02  7.6875853639820139e+02  7.6785282082869026e+02  1.0920038413963982e+03  1.0791282766260567e+03  1.0882735387472087e+03  1.0845445466904221e+03  1.0828595862159050e+03  1.0920038010333406e+03  1.0791420623076813e+03  1.0882752989447852e+03  1.0828746034634435e+03  1.0697271515094462e+03  1.0697048643572962e+03  2.5628039666474052e+02  2.4827371482745329e+02  2.5314611742257642e+02  8.7283479378717527e+02  8.6433801802156688e+02  8.6951155751401382e+02  9.4027736455584841e+02  6.5994262310618558e+02  6.7271721078570067e+02  9.4029114367646798e+02  6.6629953428285182e+02  6.5992777868430039e+02  6.6632040750564886e+02  6.7269652425241929e+02  4.6071491620682798e+02  4.6958623782589740e+02  4.6733220204102247e+02  4.6296798935840673e+02  5.4429926022536597e+02  5.3499354145986683e+02  5.4518082186380207e+02  2.8628070757512012e+02  2.8544923858167283e+02  2.9534593618627241e+02  3.4100933033939413e+02  3.3189632363683904e+02  3.4188512205327692e+02  4.8841588459413668e+02  4.7916547767649234e+02  4.8930332818723627e+02  7.0739039562059119e+01  6.1889426513355893e+01  7.1589594306906321e+01  1.2413488082514141e+02  1.2331786607430519e+02  1.3304620154747437e+02  1.7791448639808479e+02  1.6896328801985803e+02  1.7877650399539428e+02  2.3193171931733232e+02  2.3110471763304932e+02  2.4094697177709978e+02  8.4700604273958538e+02  8.4612593929557681e+02  8.5657240267092311e+02  9.0467388877022779e+02  9.0379022653653874e+02  9.1429580077594017e+02  7.8974831881431498e+02  7.8022970935373235e+02  7.9065077473620693e+02  3.7748624637164659e+02  3.6898714357118763e+02  3.7129089167604764e+02  5.8086933865113804e+02  5.7284201426485151e+02  5.7530837858526093e+02  5.1438018268590861e+02  5.0836597601667285e+02  5.1509948806463308e+02  5.0764730753352217e+02  5.1366194352884168e+02  8.1771950089976701e+02  8.1085777921889451e+02  8.1839220546477998e+02  8.1017644513020537e+02  8.1705794042567732e+02  8.1906827847035845e+02  8.2592657141777249e+02  8.2660599997370866e+02  8.1974673808678449e+02  5.2515582325076855e+02  5.1796520460505951e+02  5.2228974539223657e+02  3.7935506576744575e+02  5.8408495711973319e+02  3.7252617919552911e+01  3.9864158748767528e+02  6.0296645721418963e+02  9.9910207453465057e+02  7.2990960076651947e+02  3.7448466396259909e+02  5.7853525940574912e+02  4.5103410510319833e+02  4.5323384166168165e+02  4.5851918882594009e+02  6.2464272096833611e+02  6.3557520705896479e+02  6.2546480112381209e+02  9.7661312826399796e+02  9.6531513881601745e+02  9.7577591799027641e+02  7.0790854184015234e+02  6.9699717598549933e+02  7.0717965772436605e+02  4.2011416446558081e+02  4.3072212193676853e+02  4.2080962163948175e+02  2.0495064949301985e+02  2.1207724744314228e+02  2.0497799611642176e+02  2.1205012999414200e+02  2.0492290603304775e+02  1.9785029171496910e+02  1.9782233758491552e+02  9.7459935106971784e+01  1.0450588034687873e+02  9.7485384142714608e+01  1.0448019276223725e+02  9.7434246125284417e+01  9.0439285248153766e+01  9.0413930174142635e+01  1.0751240320140837e+03  4.3302195808449528e+02  4.3225725389864562e+02  4.4222508184901767e+02  9.6273920542047961e+02  9.5307068903817799e+02  9.6356732016072715e+02  6.9465460790189991e+02  6.8522105232545005e+02  6.9544917068654320e+02  6.3802069375743588e+02  6.3724196110526941e+02  6.4740536279123626e+02  5.2643175533356225e+02  5.2076410311177699e+02  5.2004594075516547e+02  8.2973734556355771e+02  8.2406436121109243e+02  8.2339335255795595e+02  8.0705576328887025e+02  8.1272307114170701e+02  8.1339917004361882e+02  2.6049976893900151e+02  2.5144284334413561e+02  2.5355249842843702e+02  2.5839291912860460e+02  8.7730652592899457e+02  8.6769829127308469e+02  8.6993387245538611e+02  8.7507336165909805e+02  0.0000000000000000e+00  0.0000000000000000e+00  6.8817042387896601e+00  1.1191956140709408e+03  1.1191956140709408e+03  1.1117316337717316e+03  1.1191956140709408e+03  0.0000000000000000e+00  3.9994064535603593e+02  6.0426207188653893e+02  9.9810625446991480e+02  7.2881668687318279e+02  1.0980775338592002e+03  1.0981343543386674e+03  1.0980813435610503e+03  1.0981363850569157e+03  5.3881604029389713e+01  4.5613821089926816e+01  5.3527237925939723e+01  5.3199202736610786e+01  4.5980848529413215e+01  3.8065571153478658e+01  4.1182352715577701e+02  4.1196698473305122e+02  6.1629192184255555e+02  6.1643342470747939e+02  7.1647475220352624e+02  7.1629571080685594e+02  9.8558895783195862e+02  9.8380889594533960e+02  3.6274283610583200e+02  3.6043747301353625e+02  5.6650770173228796e+02  5.6404449158706200e+02  3.5305450246571667e+01  3.6716537183806125e+01  4.4237044490397437e+01  1.9317763910086761e+01  1.9373718263622585e+01  2.6486694616974046e+02  2.6697228675105839e+02  8.8194553112229096e+02  8.8417740172611639e+02  2.4113018237253655e+01  1.8803306905160241e+01  1.8937472928911063e+01  2.6221237751358586e+02  2.7080501718062322e+02  2.6819247496820770e+02  8.7913131386606221e+02  8.8824860525994382e+02  8.8547465915270357e+02  4.1617742309082990e+02  4.0999619293478150e+02  4.0862257580044070e+02  6.2108496695752842e+02  6.1465251501546288e+02  6.1326270251345966e+02  7.1164248975361625e+02  7.1816213997261616e+02  7.1953633611192561e+02  9.8090845109485701e+02  9.8595714265201923e+02  9.8871099197261663e+02  3.6528825278332039e+02  3.5674937675554042e+02  3.5925425071032709e+02  5.6914871201220410e+02  5.6035697239311617e+02  5.6297277369020014e+02  3.4560549246630309e+01  2.5724435498862803e+01  2.6462469030874821e+01  8.8550607565414145e+02  8.7549709870070922e+02  8.7139696376084783e+02  8.6549338431859883e+02  8.8140697389458978e+02  1.5111988630738608e+02  1.5597200808281926e+02  1.6086138862966041e+02  1.4623287207414722e+02  1.4138659254291218e+02  3.2263164329191028e+02  3.1321950044271108e+02  3.0874916344339863e+02  3.0381749595443995e+02  3.1815953947888073e+02  1.9608151451799890e+02  2.0496073491144651e+02  2.0941203959304238e+02  2.1385142048395400e+02  2.0052945556337872e+02  8.8685600715443741e+01  9.7467303137967491e+01  1.0186927733737728e+02  1.0625921575460031e+02  9.3085272417663205e+01  2.6822822223144487e+02  2.5493351397016161e+02  2.6436497356053877e+02  2.5879787786548508e+02  2.4937238947753190e+02  3.5711001621558597e+02  3.6189472725218928e+02  3.6490485677920969e+02  5.6117894980938308e+02  5.6577546592844988e+02  5.6880457025372857e+02  7.7277657955843574e+02  7.6695814209867945e+02  7.6471863114098733e+02  4.4965779125514996e+02  4.5518742684171042e+02  4.5743549359541851e+02  5.0626981811098597e+02  5.1068715192028560e+02  5.1355211735740738e+02  4.6357157823285354e+02  4.6576264556103092e+02  4.7081167715858993e+02  6.5646309891636258e+02  6.7134789744026682e+02  6.6138000776621527e+02  6.6642834690196116e+02  6.7639916618590735e+02  9.4389035694640893e+02  9.3357508195507251e+02  9.2850765687097260e+02  9.2327175353530652e+02  9.3882092455274903e+02  3.4182193328801041e+01  4.1139927984042352e+01  3.4847918992340271e+02  3.5102152154258101e+02  4.9591120867955863e+02  5.0430343699421877e+02  4.9857619816116591e+02  5.0695053308784287e+02  1.8517969160189136e+02  1.9330079230915894e+02  1.8775155809153273e+02  1.9584639453109847e+02  7.9742428811381501e+02  8.0609545019509267e+02  8.0017376982058738e+02  8.0882257349992733e+02  2.2472702369080420e+02  2.1654097152369201e+02  2.2208605537340813e+02  2.1393226614165408e+02  8.9698029352575202e+02  8.9416859637602579e+02  8.3935365378471465e+02  8.3066988450048086e+02  8.3655671492572651e+02  8.2791477607860202e+02  1.1701414770538793e+02  1.0892058345378118e+02  1.1440270691162819e+02  1.0634282611067503e+02  7.7915917257701636e+01  8.5945391657431458e+01  8.0460809852600079e+01  8.8462796408446877e+01  2.7903417551306791e+02  2.7638319984457718e+02  5.5187915104542810e+02  5.5448800624417515e+02  6.2784015667183644e+02  6.2196692985805589e+02  6.1932208797835642e+02  6.3054148113349743e+02  7.0488023492145680e+02  7.1076671845687531e+02  7.1358922635244028e+02  7.0206662284993172e+02  9.7325447304149225e+02  9.7938130610168332e+02  9.8209866173137721e+02  9.7050186904173756e