<?xml version="1.0"?>
<VTKFile type="UnstructuredGrid"  version="0.1"  >
<UnstructuredGrid>
<Piece  NumberOfPoints="2690" NumberOfCells="4864">
<Points>
<DataArray  type="Float64"  NumberOfComponents="3"  format="ascii">-5.031421078492675 22.00690101737008 0  -5.628971006022201 21.26947097026068 0  -5.03079229329882 21.50746810851386 0  -5.030073865612514 21.00694702561625 0  -5.629582783633091 21.76959429558529 0  -6.227769268374196 21.53117212069087 0  -9 21.99999999996945 0  -8.401462196911057 21.26394229705037 0  -9 21.49999999997139 0  -9 20.99999999997333 0  -8.401571016400768 21.76393419878225 0  -7.803039218459054 21.52785049617378 0  -9 32.9999999999446 0  -8.403853489685957 32.26391991366715 0  -9 32.49999999994358 0  -9 31.99999999994255 0  -8.403962359733107 32.76392189350205 0  -7.807821480355839 32.52782764322962 0  -5.04729521786089 33.00746459415016 0  -5.560009445253694 32.30374410731567 0  -5.046635097598457 32.50845374420769 0  -5.045885905641688 32.0072276494997 0  -5.560639403817554 32.80393398086441 0  -6.074008826286916 32.59933468509046 0  -5.077849989191382 54.00713348640322 0  -5.670086625658514 54.74429834775747 0  -5.669484982913179 54.244594268619 0  -6.261052078143647 54.48101325973288 0  -5.078537210764698 54.50764597008229 0  -5.079182133045324 55.00720547762688 0  -9 54.99999999998974 0  -8.480292913354761 54.29733310063406 0  -9 54.49999999998872 0  -9 53.99999999998769 0  -8.480387260148742 54.79730408708426 0  -7.960699314786837 54.59461739474931 0  -9 39.99999999995897 0  -8.405701795866047 40.73889810031898 0  -8.405592937927793 40.23889949358755 0  -7.811289623291579 40.47777872224429 0  -9 40.49999999996 0  -9 40.99999999996102 0  -5.058869826746465 41.00661715953286 0  -5.625966029382634 40.27493559884032 0  -5.058216939144478 40.50768203146806 0  -5.057520859254177 40.00745103294154 0  -5.626579503574534 40.7748231452041 0  -6.194333194668225 40.54182427378858 0  -9 55.99999999999179 0  -8.433492912357877 56.74462165924237 0  -8.433399449160552 56.24460345777403 0  -7.866896831102983 56.48920620849418 0  -9 56.49999999999282 0  -9 56.99999999999384 0  -5.080744680698291 56.00682033947817 0  -5.648212894909188 56.75015915403835 0  -5.647615053267841 56.25013078148213 0  -6.214397355755969 56.49259025602518 0  -5.08147514361978 56.50787433481799 0  -5.082117431209992 57.00722558968722 0  -7.46164373305683 43.00390566344539 0  -6.626963285336936 43.11427005394622 0  -7.22704321707508 43.34190494490581 0  -6.992500135085038 43.67991003378386 0  -6.861507450689191 42.77622845365154 0  -6.261270367830243 42.54855201489637 0  -6.605434751080018 49.00736250775111 0  -7.43831644292199 48.89658619475203 0  -6.839465557926752 48.66931095686396 0  -7.07355752997912 48.3312379040808 0  -7.204228859404825 49.23462274568223 0  -7.802920822060177 49.46193583898187 0  -6.602785668605992 46.00691763807161 0  -7.436590300510667 45.89630005328719 0  -6.837080807239387 45.6687870910081 0  -7.07143548185783 45.3306921305071 0  -7.202239940270376 46.23439029298707 0  -7.801593740291496 46.46183680607014 0  -6.568550966251888 7.007170592177651 0  -7.414265006571834 6.896497982624778 0  -6.806198147722279 6.669114949997978 0  -7.043904907923294 6.331061123917651 0  -7.176562601268197 7.234551001914986 0  -7.784474412807689 7.461925799861644 0  -7.45430233787711 30.00386169492483 0  -6.615636574386706 30.11417304171042 0  -7.218582590002952 30.3417561125186 0  -6.982921117555539 30.67962706596006 0  -6.85130060536272 29.77625582636909 0  -6.248196865768515 29.54868736450842 0  -6.565994839476176 4.006829097208036 0  -7.412730730917014 4.11262606405741 0  -6.804412590839545 4.343558342107158 0  -7.042776045957963 4.680264846221158 0  -7.174370843117849 3.775905259777336 0  -7.782832862720304 3.545026713605545 0  -6.571155951622518 10.00723410058804 0  -7.416084257012046 10.1128967379081 0  -6.809075242641864 10.34387278454444 0  -7.046938763327768 10.68051161005231 0  -7.178216637849962 9.776264612497055 0  -7.785377877540828 9.545287082128237 0  -6.573767055620145 13.00729535231072 0  -7.417663956217651 12.89659852565612 0  -6.810901055043537 12.66924207560482 0  -7.048094277875244 12.33119124433675 0  -7.180473595725509 13.23466017821786 0  -7.787081674158365 13.46200417901712 0  -6.576388586842175 16.00740701764118 0  -7.419374783893347 15.89663084216535 0  -6.813265111930658 15.66936182346643 0  -7.050201755258865 15.33129882692188 0  -7.182442357144405 16.23466729126865 0  -7.788395478292792 16.46196937042881 0  -6.57903850153375 19.00663286076707 0  -7.421228077597853 19.11242824148698 0  -6.816197217636734 19.34315402618259 0  -7.053295518918524 19.67971684981509 0  -7.184125365815611 18.77584435035998 0  -7.78931519406025 18.54503650189004 0  -6.58606664797865 27.00638458455662 0  -7.425811470269099 27.11227250827026 0  -6.822532707798821 27.34304516317128 0  -7.058941341043834 27.67971564184991 0  -7.189399933032785 26.77556300138615 0  -7.792833124769556 26.54479933440872 0  -8.274113136333034 19.09585519214692 0  -8.031738723202102 18.82043493423594 0  -8.394597545932397 18.27253750122069 0  -8.636983737377406 18.54795775704794 0  -9 17.99999999998495 0  -8.276220869563343 27.09577688216037 0  -8.034551164393328 26.82028895563196 0  -8.396357271585405 26.27239335904907 0  -8.638038552420442 26.54788717094624 0  -9 25.99999999995395 0  -8.273268809189648 15.90829654410438 0  -8.030807780773939 16.18513688144627 0  -8.394257231126332 16.73096899552672 0  -8.63670649745916 16.45413687951809 0  -9 16.99999999998883 0  -5.766145451915975 30.10233689954673 0  -6.007145068815398 29.82550317486767 0  -5.64493582043051 29.2794103819933 0  -5.403920140413936 29.55656797746405 0  -5.041465132694177 29.00688937488656 0  -8.272481859937955 12.90829399058291 0  -8.029757598790367 13.18514763110919 0  -8.393599707901794 13.73100509212023 0  -8.636312481439051 13.45415033920181 0  -9 13.99999999999401 0  -8.271748184197724 10.09607464209902 0  -8.028586923007897 9.820681154388483 0  -8.392630028634049 9.272642390958625 0  -8.635802990844219 9.548035944265909 0  -9 8.99999999999857 0  -8.270211317963167 4.095946549960649 0  -8.026543909142934 3.820492405793305 0  -8.391368651285331 3.272503335287568 0  -8.635042230558254 3.547958944760579 0  -9 2.999999999998668 0  -8.270919729603994 6.908243675076032 0  -8.027673032510128 7.185083362106337 0  -8.392295814747326 7.730964973604179 0  -8.635530824962865 7.454126049011131 0  -9 7.999999999999485 0  -8.281184141608872 45.90815249229736 0  -8.041364662201673 46.1849866719436 0  -8.400856275658947 46.73093084940461 0  -8.640663965166178 46.45409737308994 0  -9 46.99999999997333 0  -8.281977768902465 48.90827206236906 0  -8.042424633056543 49.18510778894711 0  -8.401520449688203 49.73095172486399 0  -8.641061773705873 49.45412603635117 0  -9 49.99999999997949 0  -5.781514714022754 43.10241973995968 0  -6.02136599902406 42.82548233549004 0  -5.66087537007088 42.279178618119 0  -5.421009676218903 42.55647731128667 0  -5.060264387014094 42.00661189282147 0  -5.754169987928072 23.9248396806022 0  -6.001094706696956 24.19183146576611 0  -5.641844682060163 24.7344901187541 0  -6.247968053134424 24.45884565050232 0  -5.394951401554387 24.4678254022356 0  -5.035825406723111 25.00686675887384 0  -8.287479924743922 52.08560603312701 0  -8.043282941980982 51.81857286139171 0  -8.399457306093598 51.27579844523171 0  -7.799037314100628 51.55155909615586 0  -8.64366803854287 51.54283119159853 0  -9 50.99999999998153 0  -5.770903715305142 38.09209792607831 0  -6.015968521450143 37.82356973135046 0  -5.657162486294239 37.28245313327881 0  -6.261084365012042 37.55506705554016 0  -5.412079897480655 37.55137130516504 0  -5.053009864947455 37.00630471414382 0  -5.767157711804924 34.9247722756881 0  -6.013098432997785 35.19171492866175 0  -5.655293910613175 35.73428826424387 0  -6.258987871475774 35.45867931745723 0  -5.409380189994895 35.46772071116757 0  -5.051710804905652 36.00656231212717 0  -7.904054246396017 50.50337600217081 0  -7.851535415770807 51.02747620258017 0  -8.452077862914214 50.75166986593525 0  -6.154151976685276 36.50681498729035 0  -6.207625975256648 37.03089792118846 0  -5.603590248285759 36.75778337704871 0  -6.206561335352014 35.98270369952813 0  -5.602975880983124 36.25771174039835 0  -6.004046177504012 25.26745336558076 0  -6.125991650654962 24.86316502065644 0  -5.519957025151562 25.13841906208084 0  -8.036463594015482 25.74829320517576 0  -7.914630726516324 26.14654605343899 0  -8.518253878708574 25.87414770972137 0  -6.967709620239314 34.38093201886486 0  -6.613277564947984 34.91984390580297 0  -6.867272489701413 35.24371487186666 0  -7.221712841111857 34.70485928177943 0  -7.475655216749464 35.02877439894304 0  -7.094454527024351 52.62911366032796 0  -7.44667476594046 52.09037281819239 0  -7.194311211753185 51.76660846199973 0  -6.842098364822953 52.3053699063983 0  -6.589680761819102 51.98164617080643 0  -6.970873227907491 38.6290843236335 0  -6.616049699520511 38.09211520290941 0  -6.86924158773761 37.7668973157916 0  -7.224057334060211 38.30392609341607 0  -7.477302083344814 37.9787534702287 0  -6.959547330324396 23.38096924295087 0  -6.603687193214151 23.91993080060404 0  -6.858699415408661 24.24383268067049 0  -7.214568267736686 23.70491894946312 0  -7.469528725391837 24.02884932890173 0  -7.890892159659914 17.50323120321296 0  -7.840093606411179 18.02414409160364 0  -8.445496623589005 17.7515967849993 0  -7.83965335633865 16.98260405539532 0  -8.44539556982059 17.25162597440619 0  -7.887295050728928 8.503307039918699 0  -7.83632701520272 9.024297709173108 0  -8.443697000272872 8.751654268465849 0  -7.932275920081088 2.418469777659391 0  -7.857534106319432 2.981739486680954 0  -8.466184933594835 2.709244631180207 0  -7.835894261556128 7.982618232208974 0  -8.443597725922338 8.251651189485015 0  -7.853497369884034 49.98266000309142 0  -8.451976053038926 50.25169857177157 0  -6.07102931676895 41.59979286204119 0  -6.166165352626902 42.0742014114
[...]
<PointData  Scalars="f_29"> 
<DataArray  type="Float64"  Name="f_29"  format="ascii">2.4895412783522417e+02  2.4046218606439615e+02  2.4318512073057008e+02  2.3742429601431408e+02  2.4619589964702365e+02  2.4346848224410647e+02  2.4892559034410144e+02  2.4043192405518082e+02  2.4315556276156519e+02  2.3739351622397612e+02  2.4616549632707867e+02  2.4345036388429463e+02  3.7520568428726273e+02  3.6663322419437907e+02  3.6938053198428747e+02  3.6356465002325666e+02  3.7242055477664582e+02  3.6968014639011147e+02  3.7520967942240924e+02  3.6706174904734416e+02  3.6941495056357036e+02  3.6363094777040720e+02  3.7283601273389417e+02  3.7048148818816651e+02  6.1949025226760102e+02  6.2823643252576255e+02  6.2233889822253798e+02  6.2513574247265979e+02  6.2541254611812769e+02  6.3135916847923590e+02  6.3130482607826741e+02  6.2300958663979009e+02  6.2540668445741323e+02  6.1950714346882376e+02  6.2889876301534957e+02  6.2650598879408608e+02  4.5606164039603681e+02  4.6470762945877880e+02  4.5888061231322854e+02  4.6165459006148109e+02  4.6192710680465626e+02  4.6778452636678827e+02  4.6780982092157319e+02  4.5926326871701878e+02  4.6196489834611970e+02  4.5611005546687534e+02  4.6509346056211348e+02  4.6238619158953071e+02  6.4304180579132344e+02  6.5184835475053819e+02  6.4594737171170664e+02  6.4882006411762245e+02  6.4895194256954039e+02  6.5489538457001152e+02  6.4307979322955055e+02  6.5187551523223215e+02  6.4597651602646954e+02  6.4883785812500548e+02  6.4898557611966805e+02  6.5492951168202455e+02  4.9102041462758478e+02  4.9228523002810050e+02  4.9494497781686147e+02  4.9887165636314643e+02  4.8836196045443808e+02  4.8570518101066580e+02  5.6094791929475150e+02  5.5967464667385036e+02  5.5700458730787796e+02  5.5306249372947957e+02  5.6361939440720153e+02  5.6628826757277056e+02  5.2595130295663489e+02  5.2467747203603562e+02  5.2201898041802792e+02  5.1808667052063663e+02  5.2861121826043234e+02  5.3127022738652113e+02  7.8658353292574475e+01  7.7425879218113693e+01  7.4854517957965882e+01  7.1051506870624650e+01  8.1231258884796262e+01  8.3802023076893050e+01  3.4057307596895242e+02  3.4182532901084613e+02  3.4445681195037616e+02  3.4834338689052413e+02  3.3794470593907880e+02  3.3531649894637076e+02  4.4897669837236378e+01  4.6105296040034652e+01  4.8687032520434485e+01  5.2477037935170351e+01  4.2316979823017057e+01  3.9737493327422484e+01  1.1251265740953824e+02  1.1372734184545048e+02  1.1632251759511938e+02  1.2013264202666500e+02  1.0991858166502949e+02  1.0732678634945164e+02  1.4644982340625609e+02  1.4521148295433275e+02  1.4262648905316800e+02  1.3880397443840914e+02  1.4903596229288138e+02  1.5162045315316334e+02  1.8047397357078756e+02  1.7923547020899156e+02  1.7664019806221665e+02  1.7280765085639220e+02  1.8307057114584345e+02  1.8566449667512930e+02  2.1460776104406256e+02  2.1583818480167901e+02  2.1845375943229354e+02  2.2230183117710359e+02  2.1199519120225358e+02  2.0938293678639715e+02  3.0612305624522043e+02  3.0735973495663535e+02  3.0999188803853070e+02  3.1386218391727107e+02  3.0349285734808365e+02  3.0086183231238687e+02  2.1566734730003961e+02  2.1252622385363549e+02  2.0630534610647035e+02  2.0943934031050020e+02  2.0324760873511048e+02  3.0718926497591747e+02  3.0402579165791917e+02  2.9775829033187750e+02  3.0091478194336884e+02  2.9466795844821758e+02  1.7938471630016849e+02  1.8252391075019534e+02  1.8872476800079588e+02  1.8558280586858402e+02  1.9175275595179562e+02  3.4166067024100090e+02  3.3848982904649347e+02  3.3221992273219001e+02  3.3537455883377277e+02  3.2913972866678978e+02  1.4535857060249197e+02  1.4848881987201679e+02  1.5466999625278945e+02  1.5154408268053859e+02  1.5770503976150920e+02  1.1355751643558754e+02  1.1044298589772610e+02  1.0427384568551754e+02  1.0738140344747507e+02  1.0124103515164961e+02  4.5936785548285876e+01  4.2837421661840352e+01  3.6695159071969947e+01  3.9794569665939342e+01  3.3683441842383637e+01  7.7570249793125470e+01  8.0685566476128386e+01  8.6836330904674384e+01  8.3718834046189357e+01  8.9838898956203295e+01  5.2483030908496573e+02  5.2804949823546224e+02  5.3440808061895359e+02  5.3119315458118240e+02  5.3753137451383031e+02  5.5982895946280041e+02  5.6305790486546334e+02  5.6943699060821098e+02  5.6620526219617216e+02  5.7255374914658250e+02  4.9212132790326467e+02  4.8891462825216365e+02  4.8257733758831796e+02  4.8576720265689960e+02  4.7947062227414966e+02  2.7079984002600219e+02  2.7386437999739144e+02  2.8006623415107600e+02  2.7692872736822306e+02  2.7699553983834926e+02  2.8319239910530496e+02  5.9703096292390137e+02  5.9389722491344321e+02  5.8755831940044300e+02  5.9076212468021436e+02  5.9068446201156189e+02  5.8437438444842996e+02  4.3392591014549964e+02  4.3082878793070984e+02  4.2458057181841895e+02  4.2772998854875937e+02  4.2765866547744645e+02  4.2145455241540554e+02  3.9727968140548626e+02  4.0037519599614512e+02  4.0663490542810700e+02  4.0347064960824548e+02  4.0352690824670668e+02  4.0977187914448211e+02  5.7848007788546397e+02  5.8462315259117804e+02  5.8140503159634477e+02  4.1560609028946658e+02  4.2166993098124925e+02  4.1851036069360663e+02  4.0953364574021515e+02  4.1270725814854637e+02  2.8619286443002710e+02  2.8155842739454670e+02  2.8471184196572420e+02  2.9173580887513634e+02  2.9629970502884140e+02  2.9318555222111235e+02  3.9104555147249408e+02  3.9725642298226069e+02  4.0100504845639989e+02  3.9479173017108178e+02  3.9853854965690391e+02  6.0337703857205179e+02  5.9706613250354962e+02  5.9326405327422117e+02  5.9957211475097074e+02  5.9576847507586115e+02  4.4017730375040105e+02  4.3394899126493152e+02  4.3018991104075144e+02  4.3641521659948006e+02  4.3265378011253000e+02  2.6461791440054424e+02  2.7077132336260797e+02  2.7448245357243883e+02  2.6832703253782654e+02  2.7203607785702746e+02  1.9751463191532298e+02  2.0345066286962373e+02  2.0035877002044597e+02  1.9158524474074596e+02  1.9465238114671004e+02  9.5556450645563018e+01  1.0144383222717912e+02  9.8376103297713016e+01  2.7080595993291251e+01  3.3411712266155057e+01  3.0364715432991634e+01  8.9675113131430180e+01  9.2716122125414032e+01  5.7237980715837148e+02  5.7553546053439391e+02  4.7468927413034538e+02  4.8019790853065535e+02  4.7706440642268370e+02  2.7966085381347284e+02  2.7829570118703799e+02  2.7584715763745106e+02  5.8640171159419629e+02  5.8858156403363944e+02  5.9108459946944095e+02  4.2343338148706511e+02  4.2558165632609428e+02  4.2804244642012577e+02  4.0778086163175044e+02  4.0562675594532908e+02  4.0315841147189747e+02  3.2609546000371427e+02  3.3070636112947517e+02  3.2760299641970289e+02  4.9929150977392430e+02  4.9249402771285230e+02  4.9908256701486789e+02  5.5264156116340848e+02  5.5946265374879090e+02  5.5285182809131561e+02  5.1766216423683261e+02  5.2446479643137582e+02  5.1787429100532586e+02  7.0640509503632487e+01  7.7219112040283932e+01  7.0846367203521908e+01  5.2865240949822336e+01  4.6300540866888426e+01  5.2671783581350418e+01  3.4884979315716794e+02  3.4207794150726312e+02  3.4859844304005287e+02  1.2052275864203631e+02  1.1392381669239298e+02  1.2032839758939539e+02  1.3839149053423500e+02  1.4500420157648085e+02  1.3859804264128616e+02  1.7239780323105705e+02  1.7902901157736963e+02  1.7260254987927314e+02  2.2278930964612204e+02  2.1608378361316565e+02  2.2254765879908956e+02  3.1426202786506315e+02  3.0756028062518732e+02  3.1406291080103830e+02  2.9712713067978058e+02  2.9899409407688552e+02  3.0162518301512233e+02  2.0521277428652024e+02  2.0729759706342253e+02  2.0990984847991879e+02  1.8975799985496920e+02  1.8771194707622823e+02  1.8511523263870603e+02  3.3144612869663183e+02  3.3338171494457612e+02  3.3600883996472612e+02  1.5557725014444472e+02  1.5359923569941725e+02  1.5101278041131894e+02  1.0327598740700844e+02  1.0530104534900113e+02  1.0789380218795075e+02  3.7184010314530092e+01  3.8460541844283270e+01  4.1040775381010747e+01  8.7865226093150824e+01  8.5834325407349255e+01  8.3260763602452997e+01  4.8177493291796611e+02  4.8374004647890342e+02  4.8639768622534905e+02  5.7049860796525729e+02  5.6839416329886649e+02  5.6572241948380054e+02  5.3533922600468122e+02  5.3330505758215168e+02  5.3064436985517898e+02  4.6853763317380850e+02  4.7124812970847222e+02  6.3720905450011503e+02  6.3117380248248435e+02  6.3426017533226695e+02  6.3718844164817449e+02  6.3184701060824102e+02  6.3424340354748244e+02  6.4300415421375578e+02  6.4011343700582029e+02  6.4302371271264849e+02  6.4014114204370208e+02  1.5857920555887913e+01  2.3155338938245588e+01  1.7544791764492057e+01  1.9230203202515998e+01  2.1465907084862366e+01  6.8120047663157675e+02  6.8123411506668333e+02  6.8574367314994004e+02  6.8126633215478387e+02  6.8571192632051805e+02  6.9022461951772334e+02  6.8120236271411670e+02  6.8123586053721851e+02  6.8574490327429658e+02  6.8571325487751608e+02  6.9022461951772334e+02  6.6290929064723707e+02  6.5586378722112886e+02  6.5889047798404738e+02  6.6292078477997279e+02  6.5588056252399861e+02  6.5891233328225303e+02  8.6785073027889670e+00  8.7082945020108511e+00  4.3689267944081323e+00  8.7383509339001595e+00  4.3390858849149767e+00  0.0000000000000000e+00  2.5278334183802031e+02  2.4854190009635914e+02  2.5363229544556100e+02  2.4769442868447248e+02  2.5194076093704575e+02  3.7909436183105998e+02  3.7481300915513657e+02  3.7994436066325261e+02  3.7396387953816111e+02  3.7824998791478447e+02  4.5217593736387892e+02  4.5648991340611116e+02  4.5132702099995095e+02  4.5733659129320876e+02  4.5301812988876105e+02  6.1639674451489554e+02  6.2076751798813552e+02  6.1910380006884964e+02  6.1474095067148403e+02  6.1307656299788653e+02  8.5730851196595843e+00  8.6555790535573767e+00  4.3694874869109164e+00  4.2857632905362761e+00  0.0000000000000000e+00  2.3427365914374803e+02  2.3887214988376613e+02  2.3586119400926586e+02  3.6039875325292525e+02  3.6503952407826904e+02  3.6199111105819469e+02  4.7086441735301628e+02  4.6625893386360275e+02  4.6931507877041344e+02  6.3117101840772000e+02  6.3720766906271410e+02  6.3720337806192606e+02  6.4301083973678908e+02  6.3719756838186117e+02  6.4301961534900977e+02  6.3185331752145191e+02  4.6798835982882230e+02  4.7413809249634801e+02  4.7358937728848468e+02  2.4110884828836092e+02  2.4227844231842195e+02  2.4737228509479382e+02  2.4228754559659680e+02  2.4855054072479746e+02  3.6653209357286335e+02  3.6810475528728176e+02  3.7323924761550643e+02  3.6850626507721591e+02  3.7521169557435240e+02  6.2319391806135218e+02  6.2416649348466547e+02  6.1813393592944874e+02  4.6405524935389661e+02  4.6322078463013486e+02  4.6882300910440728e+02  4.5685266816824242e+02  4.5768879798257132e+02  4.6285657782812632e+02  6.4777781678440124e+02  6.4830861577140354e+02  6.4249008666361931e+02  6.4829972744148961e+02  6.5345152021163119e+02  6.5292881334288950e+02  6.5807862519625212e+02  6.2485010559995078e+02  6.3019764136661195e+02  6.5345961745381896e+02  2.5344563344064602e+02  2.4845881498679850e+02  2.5353691928310556e+02  3.7976062039300137e+02  3.7512186193919933e+02  3.7985124199008152e+02  4.5153560798866846e+02  4.5695934485147103e+02  4.5143553076301669e+02  2.0136535556892744e+02  1.9363409369402987e+02  9.9417909900564368e+01  3.2134203160554499e+01  9.1708582956628803e+01  5.7448715456227171e+02  6.1921806794785755e+02  6.1416108423914841e+02  6.1524122404915306e+02  6.2087191394282650e+02  1.9752437150695110e+02  1.9364047387204079e+02  1.9752022220168317e+02  2.0136834462043063e+02  9.5568681758940741e+01  9.1716321548293138e+01  9.5563165372262333e+01  2.8041719518044367e+01  3.2613130146747203e+01  2.7562405314315100e+01  9.9422204219990789e+01  5.7848750283039624e+02  5.7449226691020795e+02  5.7848450067452234e+02  2.3053434021859226e+02  2.3769432614379642e+02  2.3582067357900019e+02  2.3240662985576014e+02  3.5664924693442777e+02  3.6346744174706163e+02  3.6158993256293053e+02  3.5852602546193566e+02  4.6745714147530657e+02  4.7222477909735517e+02  4.7823069725040438e+02  4.7768283505931964e+02  6.7389994410272664e+02  6.6615968121510787e+02  6.7165651041506749e+02  6.6941374855320839e+02  6.6840524905078712e+02  6.7389930966366683e+02  6.6616333138490825e+02  6.7165671186828320e+02  6.6840878553451853e+02  6.6049703263758283e+02  6.6049063471946545e+02  1.6165118030320201e+02  1.5663364136408663e+02  1.5969633281561877e+02  5.4158786132479872e+02  5.3642679211417249e+02  5.3957768040357871e+02  5.8244247579839680e+02  4.1168976473026999e+02  4.1952017523441532e+02  5.8244440096710514e+02  4.1559266471857359e+02  4.1168659484363502e+02  4.1559865306997665e+02  4.1951321458813300e+02  2.8892972510361670e+02  2.9443163497203631e+02  2.9302865575557547e+02  2.9033229475608738e+02  3.4058263631429048e+02  3.3484541613937165e+02  3.4112426291131686e+02  1.8043832929059835e+02  1.7991194373776682e+02  1.8610225548136734e+02  2.1458912404112121e+02  2.0891091176942419e+02  2.1512865487485053e+02  3.0610402501510225e+02  3.0038125838564525e+02  3.0664722635557740e+02  4.4874068938253508e+01  3.9271097717738954e+01  4.5406124417383566e+01  7.8614356764327582e+01  7.8092332397703117e+01  8.4233898037733084e+01  1.1248808392845631e+02  1.0685708755487801e+02  1.1302341709373803e+02  1.4641023708076909e+02  1.4588482205426729e+02  1.5206136677092206e+02  5.2591357403073107e+02  5.2537242387597530e+02  5.3172600613652378e+02  5.6091333032671730e+02  5.6037160350351746e+02  5.6674014682369545e+02  4.9103208385045968e+02  4.8523342025067780e+02  4.9157962407699205e+02  2.3726706387313646e+02  2.3198084518571645e+02  2.3342210308789558e+02  3.6310604020620718e+02  3.5816500811189781e+02  3.5967743482247363e+02  3.2213245663846453e+02  3.1841463809998021e+02  3.2256859308878836e+02  3.1797852361267121e+02  3.2169695945272775e+02  5.0805878170459022e+02  5.0388650759084504e+02  5.0847807658041989e+02  5.0346357598157937e+02  5.0764257272067937e+02  5.0889852299996647e+02  5.1306938073788240e+02  5.1349171747711102e+02  5.0932026731055026e+02  3.2876991862822132e+02  3.2433065056765275e+02  3.2700733178326169e+02  2.3843562781274031e+02  3.6507918854654849e+02  2.3635021804668273e+01  2.5043767838216635e+02  3.7673259288665599e+02  6.1794140009297757e+02  4.5453600308919420e+02  2.3541601295430513e+02  3.6165847411979985e+02  2.8292530723370311e+02  2.8429478148081512e+02  2.8756167973623997e+02  3.9003136307744342e+02  3.9674655431794605e+02  3.9053838423555464e+02  6.0440220773206977e+02  5.9757971531313797e+02  6.0389177785406127e+02  4.4106799608324150e+02  4.3439465142084799e+02  4.4062428784132260e+02  2.6375040514766124e+02  2.7033538663398559e+02  2.6418403144002536e+02  1.2945635762263240e+02  1.3392742457368445e+02  1.2946416821609921e+02  1.3391977163759384e+02  1.2944842646269771e+02  1.2499283843948245e+02  1.2498478986716142e+02  6.1752112001227495e+01  6.6199948367779655e+01  6.1759997720064732e+01  6.6192115810323770e+01  6.1744274014518382e+01  5.7311884528247489e+01  5.7304024433260857e+01  6.6374725310665133e+02  2.7176010276603728e+02  2.7128383438653350e+02  2.7746699492426859e+02  5.9604071986013366e+02  5.9020024564199355e+02  5.9653510176259090e+02  4.3295909163604483e+02  4.2718670816985940e+02  4.3344367292371965e+02  3.9824542940718243e+02  3.9776569881566559e+02  4.0400327288219648e+02  3.2957593278586359e+02  3.2607180651991160e+02  3.2563631723291877e+02  5.1537007878091993e+02  5.1192345286521896e+02  5.1150555532281362e+02  5.0158976622493213e+02  5.0503393146906689e+02  5.0545395515367420e+02  1.6427798216328699e+02  1.5861346480801595e+02  1.5992699353945409e+02  1.6296572766677201e+02  5.4428874154088589e+02  5.3846271010293333e+02  5.3981331517863566e+02  5.4293937601691493e+02  0.0000000000000000e+00  0.0000000000000000e+00  4.3691399665356601e+00  6.9022461951772334e+02  6.9022461951772334e+02  6.8574492173330259e+02  6.9022461951772334e+02  0.0000000000000000e+00  2.5120539937518333e+02  3.7749263700191199e+02  6.1737657707085270e+02  4.5383581874647666e+02  6.7754963233179876e+02  6.7758144646664493e+02  6.7755141374424579e+02  6.7758242429721679e+02  3.4162020066553389e+01  2.8916811421422882e+01  3.3931046329554540e+01  3.3719075698814976e+01  2.9154808408471244e+01  2.4141815018785334e+01  2.5859739363015342e+02  2.5869133395300685e+02  3.8489577944381926e+02  3.8498782806646807e+02  4.4630150156290063e+02  4.4619689913364016e+02  6.0981919029166306e+02  6.0873984256169069e+02  2.2810287725786725e+02  2.2666159338262517e+02  3.5426117664830031e+02  3.5275070174525189e+02  2.2398544165745005e+01  2.3284577554020490e+01  2.8051744111929246e+01  1.2266666556654286e+01  1.2298992964230008e+01  1.6702564979754828e+02  1.6833627285433778e+02  5.4711578552836227e+02  5.4846346652668990e+02  1.5303836041811028e+01  1.1937159369991985e+01  1.2020830617460332e+01  1.6537430234752895e+02  1.7075042885389860e+02  1.6912613785665388e+02  5.4541773911540326e+02  5.5094744381814269e+02  5.4927604794162869e+02  2.6132098425184159e+02  2.5747592529070397e+02  2.5663027780318811e+02  3.8786003295494521e+02  3.8390146853055586e+02  3.8305421130415596e+02  4.4336477375329986e+02  4.4734534293590843e+02  4.4819153414396516e+02  6.0697707439834733e+02  6.1002711089805871e+02  6.1168410328568359e+02  2.2969584496070942e+02  2.2438081962271244e+02  2.2594728572961478e+02  3.5588283996695355e+02  3.5047000770350962e+02  3.5207135895992360e+02  2.1939568938395116e+01  1.6333379197721346e+01  1.6805726357846478e+01  5.4925524705735745e+02  5.4317911988389903e+02  5.4069577073075527e+02  5.3710500363428582e+02  5.4677228864969618e+02  9.5579613923535646e+01  9.8641636052557686e+01  1.0171434419541359e+02  9.2507366121190387e+01  8.9447322213568569e+01  2.0309572918646182e+02  1.9722095837159617e+02  1.9443616500136014e+02  1.9134998983761233e+02  2.0031029269430681e+02  1.2386265881002863e+02  1.2944101896178299e+02  1.3224255827307044e+02  1.3502274293211872e+02  1.2666341245183811e+02  5.6187754927873264e+01  6.1737638641263800e+01  6.4524303121399768e+01  6.7290578384155125e+01  5.8973886716683978e+01  1.6910657467900299e+02  1.6078509603085541e+02  1.6669263335156211e+02  1.6319935991854655e+02  1.5729388057654228e+02  2.2457610168661856e+02  2.2755688968566957e+02  2.2942251722069753e+02  3.5100055697734808e+02  3.5382611796431934e+02  3.5569777429938955e+02  4.8069810295124438e+02  4.7714233596716190e+02  4.7578278690141161e+02  2.8209013088587204e+02  2.8551084744931183e+02  2.8691046316075955e+02  3.1710202067123566e+02  3.1983694194718271e+02  3.2159759044657739e+02  2.9068467214230628e+02  2.9205027172355892e+02  2.9517274586522609e+02  4.0957523214185426e+02  4.1869339442034294e+02  4.1258325807733144e+02  4.1568407126088198e+02  4.2179431965744658e+02  5.8460930445117651e+02  5.7836987464422475e+02  5.7531006969828491e+02  5.7213466352330693e+02  5.8154889953180100e+02  2.1685844225554860e+01  2.6093749053622663e+01  2.1922713768370753e+02  2.2081838591016822e+02  3.1072541277145274e+02  3.1591747977415196e+02  3.1238080138915467e+02  3.1756024629515747e+02  1.1703974195502683e+02  1.2215056364572871e+02  1.1866654774885659e+02  1.2375938077992832e+02  4.9570638485806450e+02  5.0097889578062734e+02  4.9738393435752812e+02  5.0263674664195906e+02  1.4187501059312805e+02  1.3674530023380774e+02  1.4022838816656127e+02  1.3511819568385206e+02  5.5623582271255600e+02  5.5454066248246215e+02  5.2124637123233560e+02  5.1597088467585854e+02  5.1955477516929898e+02  5.1430553208007757e+02  7.4105594627141343e+01  6.9002586717362121e+01  7.2466922345768623e+01  6.7384312848243667e+01  4.9400558389407863e+01  5.4484903641494995e+01  5.1019432517344839e+01  5.6085444210949952e+01  1.7589181102282606e+02  1.7424359371662760e+02  3.4525485305103234e+02  3.4686521444029870e+02  3.9199935915565896e+02  3.8837937184065601e+02  3.8674863733923667e+02  3.9365522173786854e+02  4.3921831238662321e+02  4.4280786059275101e+02  4.4452615842130695e+02  4.3749576310474288e+02  6.0238409554913608e+02  6.0607977001709344e+02  6.0772486775377160e+02  6.0071521310312335e