<?xml version="1.0"?>
<VTKFile type="UnstructuredGrid"  version="0.1"  >
<UnstructuredGrid>
<Piece  NumberOfPoints="2690" NumberOfCells="4864">
<Points>
<DataArray  type="Float64"  NumberOfComponents="3"  format="ascii">-5.07691723513094 22.01681705149414 0  -5.66642417482905 21.27946957399506 0  -5.075405941736088 21.51819231401429 0  -5.073603633776634 21.01689336448159 0  -5.667950866504915 21.77978057134438 0  -6.258964809561197 21.54003238632106 0  -9 21.99999999996945 0  -8.408106432674387 21.26601426925948 0  -9 21.49999999997139 0  -9 20.99999999997333 0  -8.40837727593691 21.76599473144226 0  -7.816500458569024 21.53194508398786 0  -9 32.9999999999446 0  -8.414026849825088 32.26595919673905 0  -9 32.49999999994358 0  -9 31.99999999994255 0  -8.414297319893411 32.76596448087847 0  -7.828338827599891 32.53188858520287 0  -5.116189953266236 33.01817153232503 0  -5.618760364080696 32.31434036125219 0  -5.114615859974936 32.52058944435556 0  -5.112686295651602 32.0175820681127 0  -5.620342233210494 32.81480782806103 0  -6.124472606776349 32.60883433142152 0  -5.192461059798381 54.01730651612632 0  -5.768757867140034 54.75400054030633 0  -5.767249483909545 54.25472565002308 0  -6.341791323143974 54.48960373987305 0  -5.194245892625231 54.51860313655961 0  -5.195798246294649 55.01747947930473 0  -9 54.99999999998974 0  -8.495547642861439 54.29907826078971 0  -9 54.49999999998872 0  -9 53.99999999998769 0  -8.495787475081928 54.79900523795389 0  -7.991385163083844 54.59803422088213 0  -9 39.99999999995897 0  -8.418621514130448 40.74090284336313 0  -8.418350926412838 40.24090679924218 0  -7.836960558243431 40.4817627002361 0  -9 40.49999999996 0  -9 40.99999999996102 0  -5.14494941028821 41.01605901317365 0  -5.698440296810923 40.28511585756111 0  -5.143387375593823 40.51867630909339 0  -5.141611379906316 40.01808883230891 0  -5.699968651481486 40.78484376020213 0  -6.255018867201703 40.55068206027108 0  -9 55.99999999999179 0  -8.45087932898176 56.74647535450588 0  -8.450642535177845 56.24642907976141 0  -7.901532910944518 56.49285769238181 0  -9 56.49999999999282 0  -9 56.99999999999384 0  -5.199759637968027 56.01651796453817 0  -5.751348811863591 56.75991034256858 0  -5.749865675113091 56.25983889667749 0  -6.299671041885775 56.50106811254977 0  -5.201655007933122 56.51916018633723 0  -5.203203053681778 57.01753551464034 0  -7.497007469005685 43.00952604776133 0  -6.681673792771967 43.12305346766571 0  -7.268126416063125 43.34848035510672 0  -7.039384344165034 43.68744732778013 0  -6.910411703862211 42.7839943846737 0  -6.323575926213009 42.55846924646756 0  -6.668339098926975 49.01800096559845 0  -7.479243378367903 48.90346162564391 0  -6.895795226284659 48.67892030459874 0  -7.123413217562768 48.33978456586824 0  -7.251640682468604 49.24250714942357 0  -7.834682888446777 49.46714197789154 0  -6.661776561647938 46.01690467935716 0  -7.474965425123192 45.90275120167354 0  -6.889901732496127 45.67762355452756 0  -7.118177798232848 45.33842973029599 0  -7.246698977761776 46.24193175555234 0  -7.8313782359491 46.46689573417576 0  -6.577125845761011 7.017489213227051 0  -7.41976270878505 6.903214631538904 0  -6.813540210647231 6.678399111891897 0  -7.050106316171711 6.339312885899671 0  -7.183206379976463 7.242297747536838 0  -7.789045469751233 7.467094147796368 0  -7.478769577253338 30.00941873744098 0  -6.65353335152812 30.12281321103707 0  -7.247113228147104 30.34811357349013 0  -7.015600502142277 30.68674928654803 0  -6.88504829711033 29.78406187364401 0  -6.29107948237467 29.55879987007853 0  -6.570928305775299 4.01664761905304 0  -7.416042674038207 4.11903310191925 0  -6.809210276413237 4.35250277060994 0  -7.047368718867339 4.68830343505364 0  -7.177892616479437 3.783198957410542 0  -7.785064932074714 3.549858923759001 0  -6.583485962538533 10.01763689755471 0  -7.424202391028025 10.1196946718847 0  -6.820562602937744 10.3532717924862 0  -7.057509130825382 10.68890766632641 0  -7.187243747166729 9.784076511465814 0  -7.791250410242812 9.550494746636003 0  -6.589863487292826 13.01779623350855 0  -7.428059237518262 12.90346177403677 0  -6.825021974689699 12.67871192989075 0  -7.060331233438458 12.33963295873626 0  -7.192753716559563 13.24256607135258 0  -7.795409240897686 13.46728683564038 0  -6.596282321721666 16.01806838615506 0  -7.432255415808805 15.90354224872947 0  -6.83081034076192 15.67900433869275 0  -7.06549350342847 15.33989616110822 0  -7.197585700197746 16.2425853274128 0  -7.798639206221829 16.46720401149471 0  -6.602891909905225 19.01618356249448 0  -7.436876398455876 19.11855704801174 0  -6.838130837149524 19.35152583729183 0  -7.073213781114549 19.68697055595844 0  -7.201779573782439 18.78305932114628 0  -7.800930713190804 18.54988858694234 0  -6.620299991539233 27.01557949454546 0  -7.448231335241154 27.11817918921594 0  -6.853806849029046 27.35126408240241 0  -7.08717626748576 27.68697330554752 0  -7.214859498718617 26.78237356691553 0  -7.809660550298427 26.54930956265385 0  -8.281300617736807 19.09866837683512 0  -8.041177361879038 18.8242517953014 0  -8.400314703141891 18.27499148384346 0  -8.64046735823386 18.54940827708409 0  -9 17.99999999998495 0  -8.286523996488834 27.09847814763366 0  -8.048151546107491 26.82389602280162 0  -8.404684288810994 26.27463911766725 0  -8.643084860562755 26.54923584519594 0  -9 25.99999999995395 0  -8.279196388128463 15.91145985996566 0  -8.038857291416202 16.1893415254028 0  -8.399466807974052 16.73356404853005 0  -8.639776511359818 16.45570233495974 0  -9 16.99999999998883 0  -5.817554847100825 30.11448469917849 0  -6.054253143000947 29.83662352300407 0  -5.696728388301812 29.29178793418091 0  -5.460017493265356 29.57044330516757 0  -5.101677413537199 29.01680867021998 0  -8.277264528303171 12.91145240925442 0  -8.036277530243416 13.18936609723603 0  -8.39784781069881 13.73365077151975 0  -8.638807394468609 13.45573437603588 0  -9 13.99999999999401 0  -8.275473517248786 10.09920155485838 0  -8.033419839620421 9.824848825322547 0  -8.395480884469103 9.275244651086428 0  -8.637563742766735 9.549597442889638 0  -9 8.99999999999857 0  -8.271734531873422 4.098888362880192 0  -8.028451880240317 3.824387622310011 0  -8.392416696226869 3.274905070559625 0  -8.635714780595174 3.549409310433038 0  -9 2.999999999998668 0  -8.273452221728343 6.911328749297968 0  -8.031189768360418 7.18920811686133 0  -8.394665280678758 7.733552034410424 0  -8.636899612973492 7.455674628455455 0  -9 7.999999999999485 0  -8.298832549267441 45.91111515780617 0  -8.065045539307103 46.18898565008648 0  -8.415834949736352 46.73347891196681 0  -8.649593098043244 46.45561018927403 0  -9 46.99999999997333 0  -8.300800883010274 48.91141322179631 0  -8.067679518831586 49.18928728018569 0  -8.417492514768135 49.7335313197125 0  -8.650583779830098 49.45568188729186 0  -9 49.99999999997949 0  -5.855752383028537 43.11469187185045 0  -6.089598780310339 42.83657663088424 0  -5.736357827902342 42.29122427692531 0  -5.502505927411782 42.57022778007971 0  -5.148409068566374 42.01611703603501 0  -5.794928117363837 23.93710265717404 0  -6.039179091947911 24.20301771787386 0  -5.685483205848748 24.74683118762358 0  -6.283301780526279 24.4689895481145 0  -5.441335196170699 24.48171322127097 0  -5.087717207439799 25.01669559736508 0  -8.307471723040413 52.08838766623107 0  -8.069976064335883 51.82236888618167 0  -8.416021996253813 51.27824612836124 0  -7.832356487211588 51.55639794610683 0  -8.653552326153815 51.54426392951143 0  -9 50.99999999998153 0  -5.836409751517127 38.10423158826468 0  -6.076052564792276 37.83456603002806 0  -5.723458384019318 37.29451093615347 0  -6.315820448378048 37.56495321510222 0  -5.483800468264269 37.56513904098655 0  -5.130331466675973 37.01536704276483 0  -5.82708999877135 34.93694153741998 0  -6.06891029667065 35.20273554273992 0  -5.718800516888214 35.74633721485282 0  -6.310602686376767 35.46858312429001 0  -5.477072054820103 35.48146137888337 0  -5.127067644021233 36.01591095437066 0  -7.933791110830712 50.50799817846721 0  -7.883046474426875 51.03221952877584 0  -8.467023896830995 50.75395456193619 0  -6.209369236286817 36.51660201434915 0  -6.262613481178992 37.04067337257848 0  -5.669943378651549 36.76895814929192 0  -6.259961477199147 35.99247985797995 0  -5.668396734147072 36.26876387627365 0  -6.043784534484446 25.27822368693355 0  -6.163507634692345 24.87364167129579 0  -5.565890385058976 25.15053474818252 0  -8.049486585593979 25.75185969762974 0  -7.929530210493986 26.15058401845699 0  -8.524797171620234 25.87593266901895 0  -7.004760413036401 34.38817194734493 0  -6.657505191781429 34.92847581819314 0  -6.907174155438327 35.25136778392677 0  -7.254451734468119 34.7112044373981 0  -7.503991498040679 35.03420679598121 0  -7.148532834323303 52.6363382695876 0  -7.490261603408342 52.09645900597122 0  -7.244633513284813 51.77382834816298 0  -6.902922624025535 52.31376022970264 0  -6.657154968829976 51.99123020296314 0  -7.012626884884835 38.63625972047038 0  -6.664400167296667 38.10070392645113 0  -6.912072217546021 37.77452064764172 0  -7.260281909064871 38.31022621777215 0  -7.508087091412612 37.98415549123289 0  -6.984549270662249 23.38826160240963 0  -6.633752049304046 23.92868641807242 0  -6.885934573015459 24.25165524681399 0  -7.236756515007401 23.71134908376085 0  -7.4888138489557 24.03438934319022 0  -7.900895759957845 17.5078838862281 0  -7.850886862588748 18.02891152332741 0  -8.450573846020895 17.75389623025684 0  -7.849790559592563 16.98755314393578 0  -8.450322111061336 17.25396732501838 0  -7.892078371386764 8.508064403546875 0  -7.841641899942151 9.029281195369588 0  -8.446159107994982 8.754033963773747 0  -7.933734470771615 2.422604001847133 0  -7.8593516558975 2.986210243181683 0  -8.466980108551851 2.711325528802053 0  -7.840585664384595 7.987583684248766 0  -8.445916831561433 8.254026537035605 0  -7.884261414531922 49.98758006854979 0  -8.466766180120308 50.25402564259261 0  -6.136106018356076 41.60939976443556 0  -6.229883500614011 42.084
[...]
<PointData  Scalars="f_29"> 
<DataArray  type="Float64"  Name="f_29"  format="ascii">4.0225255538629017e+02  3.8836801511576812e+02  3.9281453766662861e+02  3.8339451844804802e+02  3.9774980619520619e+02  3.9327169623435202e+02  4.0211045799938091e+02  3.8823064800252519e+02  3.9267036150037632e+02  3.8324366935038057e+02  3.9761425379357325e+02  3.9318939776378153e+02  6.1021554903251740e+02  5.9602734327409280e+02  6.0056416949761467e+02  5.9092903059496211e+02  6.0562034081381364e+02  6.0109429304553521e+02  6.1030990308486992e+02  5.9680992817168408e+02  6.0070432659712139e+02  5.9112673841755566e+02  6.0638342914620432e+02  6.0247007169326912e+02  1.0203503261274241e+03  1.0352043953060543e+03  1.0251873676636510e+03  1.0299260572840399e+03  1.0304069478624915e+03  1.0405091281993009e+03  1.0403381863861052e+03  1.0262513118666991e+03  1.0303125348586261e+03  1.0202869608426563e+03  1.0362634080744394e+03  1.0322093985593142e+03  7.4487922628873957e+02  7.5935183130961775e+02  7.4960625367781768e+02  7.5426290527317940e+02  7.5468543076613503e+02  7.6448057666062562e+02  7.6461696576304041e+02  7.5031853741693169e+02  7.5483531893961003e+02  7.4504088004174685e+02  7.6007711820778536e+02  7.5553388269716470e+02  1.0603105641515624e+03  1.0753119632812172e+03  1.0652674829950508e+03  1.0701729104972728e+03  1.0703702241913788e+03  1.0804833043905342e+03  1.0604476875973585e+03  1.0754160159729406e+03  1.0653773644097275e+03  1.0702400554652666e+03  1.0704974506933045e+03  1.0806140415204077e+03  8.0344873890117958e+02  8.0558427365811906e+02  8.1003761969852314e+02  8.1663349055596416e+02  7.9900227508777346e+02  7.9455648047746877e+02  9.2113586437484969e+02  9.1896385067104541e+02  9.1447134674184804e+02  9.0781159724271845e+02  9.2563401628203098e+02  9.3012694614733823e+02  8.6214504754874645e+02  8.5998249601147131e+02  8.5552703602116662e+02  8.4891039065042708e+02  8.6660730295036740e+02  8.7106630871913546e+02  1.2589652540534567e+02  1.2389332145015101e+02  1.1977801222367606e+02  1.1366269758382829e+02  1.3001751211943042e+02  1.3413377696827303e+02  5.5291318704532102e+02  5.5499676980797574e+02  5.5934006585826012e+02  5.6577502429724211e+02  5.4857999543536869e+02  5.4424762228011525e+02  7.1734700472104038e+01  7.3650504442548424e+01  7.7799252942771730e+01  8.3865888698423191e+01  6.7591642700931445e+01  6.3449316547960436e+01  1.8042224465747464e+02  1.8235689644696416e+02  1.8656467434581907e+02  1.9270843823813169e+02  1.7621910808286390e+02  1.7201979229571941e+02  2.3527537171495499e+02  2.3324542387087391e+02  2.2907908412507251e+02  2.2288595598203995e+02  2.3944643406020836e+02  2.4361375990698727e+02  2.9046761183979083e+02  2.8843203737434987e+02  2.8423113870979614e+02  2.7799932488078315e+02  2.9467395786621319e+02  2.9887499305817710e+02  3.4606260765426271e+02  3.4805454118865504e+02  3.5233950580840042e+02  3.5862199421318911e+02  3.4178758466145348e+02  3.3751046617270219e+02  4.9608156779805813e+02  4.9810372691258789e+02  5.0245310092881232e+02  5.0882849297086392e+02  4.9174083269613021e+02  4.8739631664658225e+02  3.4775265375475635e+02  3.4263304316539035e+02  3.3247228393165727e+02  3.3757707116014598e+02  3.2746533737956548e+02  4.9780145699171896e+02  4.9259907235529232e+02  4.8227196296443998e+02  4.8745999525642083e+02  4.7716852094648749e+02  2.8864839184965598e+02  2.9376039637403414e+02  3.0383439772013605e+02  2.9871502502068012e+02  3.0874533929340168e+02  5.5472661511193894e+02  5.4949016564561998e+02  5.3914854917887601e+02  5.4433532692903191e+02  5.3407898566200731e+02  2.3345487120937622e+02  2.3853297923183385e+02  2.4853433120166756e+02  2.4346036771838118e+02  2.5343298209579845e+02  1.8205397614257654e+02  1.7703810155715527e+02  1.6707664568227327e+02  1.7207866305944134e+02  1.6216651794428452e+02  7.3357019117897352e+01  6.8403545770465925e+01  5.8565099397793993e+01  6.3515769518918503e+01  5.3731167357212783e+01  1.2409897540652146e+02  1.2911520066069227e+02  1.3899467291158513e+02  1.3397220058377084e+02  1.4380735873692379e+02  8.6021412877398632e+02  8.6563881873979983e+02  8.7633104518510015e+02  8.7090995863632361e+02  8.8157351233600093e+02  9.1919934974193541e+02  9.2466181776957649e+02  9.3543084731722297e+02  9.2996104491186065e+02  9.4068775754610681e+02  8.0531131469294985e+02  7.9993677916144918e+02  7.8932567847928090e+02  7.9465001348655926e+02  7.8413339449295211e+02  4.3801986797889356e+02  4.4305377749680997e+02  4.5325909977259772e+02  4.4808579924918246e+02  4.4818930328480855e+02  4.5841746187296172e+02  9.8215146571694834e+02  9.7684683485773212e+02  9.6609292269909793e+02  9.7154066272432192e+02  9.7138222788439396e+02  9.6067583688959121e+02  7.0795004356123025e+02  7.0278779583876963e+02  6.9238736212737342e+02  6.9762222096663947e+02  6.9749170130755147e+02  6.8719402424587565e+02  6.4692380085975788e+02  6.5207473863620658e+02  6.6250794196082893e+02  6.5722446771655439e+02  6.5731187271480007e+02  6.6775659272085784e+02  9.5074040934202367e+02  9.6114179931737124e+02  9.5567547466890778e+02  6.7744604911636281e+02  6.8753389246813151e+02  6.8229818251157371e+02  6.6732487489493121e+02  6.7262994411603574e+02  4.6332633155503027e+02  4.5570043826000352e+02  4.6090769722068831e+02  4.7237700712783885e+02  4.7988686438987287e+02  4.7474792162445476e+02  6.3655551262026233e+02  6.4688053935823632e+02  6.5311083082954804e+02  6.4277585046234003e+02  6.4899877228069022e+02  9.9294489285986788e+02  9.8223466152955143e+02  9.7579623902042135e+02  9.8649775665924847e+02  9.8005543489229865e+02  7.1837658207281572e+02  7.0798540077843518e+02  7.0171282259757879e+02  7.1209321714536338e+02  7.0581244286693232e+02  4.2787127539777504e+02  4.3796854611394321e+02  4.4405637157046607e+02  4.3394984116120503e+02  4.4002995649054776e+02  3.1816022219280018e+02  3.2783616168581949e+02  3.2277920614972282e+02  3.0850859960707521e+02  3.1348265343337829e+02  1.5304730315673660e+02  1.6253519134980138e+02  1.5757274146577936e+02  4.3208570171429024e+01  5.3330765436026724e+01  4.8442656507523402e+01  1.4358198607800537e+02  1.4845657857566627e+02  9.4042459006297565e+02  9.4574307249750871e+02  7.7612200511930428e+02  7.8533684229205005e+02  7.8010947436392394e+02  4.5255935500935806e+02  4.5032515683431194e+02  4.4629072097309017e+02  9.6417511329362662e+02  9.6785741731890835e+02  9.7211354892709392e+02  6.9045165851066986e+02  6.9403812104579947e+02  6.9812750169100809e+02  6.6438566310203726e+02  6.6080779101711460e+02  6.5668741993135529e+02  5.2904190093235241e+02  5.3664273525494161e+02  5.3154393632130405e+02  8.1735560284791006e+02  8.0593890667971607e+02  8.1699730504376816e+02  9.0707899630289842e+02  9.1859490727205457e+02  9.0744624338172025e+02  8.4817302612902279e+02  8.5961359043711934e+02  8.4854272175400740e+02  1.1297950429940451e+02  1.2354940262247887e+02  1.1332301738204441e+02  8.4466480901177604e+01  7.3952847699719882e+01  8.4168496485626420e+01  5.6662753677501951e+02  5.5541876005018946e+02  5.6620529684430369e+02  1.9331158195545555e+02  1.8266091961505160e+02  1.9301221604186955e+02  2.2219278617559783e+02  2.3289698585728613e+02  2.2254118988331959e+02  2.7731017507756889e+02  2.8808497962970864e+02  2.7765574502507417e+02  3.5939757374430798e+02  3.4844573613456316e+02  3.5901450556276245e+02  5.0946796221452598e+02  4.9842494963435888e+02  5.0915077623700313e+02  4.8126831842137756e+02  4.8433180332533453e+02  4.8867328034583647e+02  3.3072802849694807e+02  3.3411910938003285e+02  3.3839307595603805e+02  3.0555667244961182e+02  3.0221746877283317e+02  2.9800971542762454e+02  5.3784423421591566e+02  5.4104809133638037e+02  5.4537516933665847e+02  2.5004865398862540e+02  2.4683205811521958e+02  2.4265948712486744e+02  1.6551098845251224e+02  1.6876555210469579e+02  1.7296372921877455e+02  5.9382674232935166e+01  6.1416559435968786e+01  6.5557201172062307e+01  1.4069196169687865e+02  1.3741444500386547e+02  1.3329111604257145e+02  7.8796310684432638e+02  7.9126089390709842e+02  7.9570353912765563e+02  9.3726488449530711e+02  9.3369760236513071e+02  9.2919772507293851e+02  8.7793676482302828e+02  8.7450229659637557e+02  8.7003782200310820e+02  7.6582887147321912e+02  7.7036739305707840e+02  1.0504468504942488e+03  1.0401893054317611e+03  1.0454319177694479e+03  1.0503723819407139e+03  1.0412898895326064e+03  1.0453500088320820e+03  1.0602715632473623e+03  1.0553399294970757e+03  1.0603441678105276e+03  1.0554456477349322e+03  2.5290723816348343e+01  3.6947357514328218e+01  2.7989318661888127e+01  3.0683951948446271e+01  3.4242789320725258e+01  1.1253752421668987e+03  1.1254361514147613e+03  1.1331412925560121e+03  1.1254936678116480e+03  1.1330850985597358e+03  1.1407994264647953e+03  1.1253789682660120e+03  1.1254407641531225e+03  1.1331442949002865e+03  1.1330878066053147e+03  1.1407994264647953e+03  1.0941652370652855e+03  1.0821647525861154e+03  1.0873056373280278e+03  1.0942129466963370e+03  1.0822294144542641e+03  1.0873921740755134e+03  1.3831450099033692e+01  1.3885251835969953e+01  6.9658248563250842e+00  1.3936038140703149e+01  6.9148631514165144e+00  0.0000000000000000e+00  4.0847109663062730e+02  4.0153449238073358e+02  4.0987757336265861e+02  4.0012892389354727e+02  4.0707397705371739e+02  6.1670819609551563e+02  6.0961435441239678e+02  6.1813317455451920e+02  6.0819007760228590e+02  6.1529153919154044e+02  7.3841496165633134e+02  7.4563462292096210e+02  7.3700972662783977e+02  7.4703510324096999e+02  7.3980864730487599e+02  1.0150766333712946e+03  1.0225054796684678e+03  1.0196623500470916e+03  1.0122516164713692e+03  1.0094123644565149e+03  1.3666953750225129e+01  1.3802907174938881e+01  6.9670391027409568e+00  6.8303674319131806e+00  0.0000000000000000e+00  3.7823124861911589e+02  3.8575461491608195e+02  3.8083891849664212e+02  5.8570984374052671e+02  5.9340132609881812e+02  5.8833438928010844e+02  7.6966623869107889e+02  7.6196298114412048e+02  7.6705900015041834e+02  1.0401743164358606e+03  1.0504411556960733e+03  1.0504239906390599e+03  1.0602953451982073e+03  1.0504025472915869e+03  1.0603281589820076e+03  1.0413138789861282e+03  7.6489609808954481e+02  7.7518874875385393e+02  7.7425721638840184e+02  3.8938492495390318e+02  3.9128578375023397e+02  3.9963342747448388e+02  3.9132697092047778e+02  4.0157263858685246e+02  5.9590061294740349e+02  5.9849595294111396e+02  6.0701709370143794e+02  5.9918570139679434e+02  6.1029780335530268e+02  1.0266005323603663e+03  1.0282666225984460e+03  1.0180036477213878e+03  7.5830246072124123e+02  7.5691901936102659e+02  7.6628103217428747e+02  7.4626264261159065e+02  7.4765123836282817e+02  7.5628578782742989e+02  1.0684182117487753e+03  1.0693310583632065e+03  1.0594192790047211e+03  1.0692976353808806e+03  1.0780677730614523e+03  1.0771874174558241e+03  1.0859557877882626e+03  1.0294058707575884e+03  1.0385091497494161e+03  1.0780986800807052e+03  4.0959398380397079e+02  4.0143829201675084e+02  4.0973498170848836e+02  6.1784991375922323e+02  6.1016228365351685e+02  6.1799148255786201e+02  7.3737811023551797e+02  7.4645485216813586e+02  7.3720319170300434e+02  3.2444621629618342e+02  3.1185371623440886e+02  1.5928100573421506e+02  5.1296981307271679e+01  1.4686522846875275e+02  9.4399816912803851e+02  1.0198324750959528e+03  1.0112438383845848e+03  1.0130648936289231e+03  1.0226330691757450e+03  3.1820192599647294e+02  3.1187734793212002e+02  3.1818322882451179e+02  3.2446378135246897e+02  1.5309407551443948e+02  1.4689121293228800e+02  1.5307277638331487e+02  4.4764932246370080e+01  5.2073819230417499e+01  4.3989842416590449e+01  1.5930140210857115e+02  9.5077918122483777e+02  9.4401980803415074e+02  9.5076192683020190e+02  3.7208492056547436e+02  3.8381506349148344e+02  3.8073376062640307e+02  3.7516342722554396e+02  5.7952664834815505e+02  5.9080783115750705e+02  5.8771223760371311e+02  5.8262191134498642e+02  7.6397941694969086e+02  7.7195878596487512e+02  7.8203795520554036e+02  7.8111074374950863e+02  1.1129144739293586e+03  1.0997146412942061e+03  1.1090906151387187e+03  1.1052681554522007e+03  1.1035389709063486e+03  1.1129149445414771e+03  1.0997307245737074e+03  1.1090928930785399e+03  1.1035568155855710e+03  1.0900810034750530e+03  1.0900553792424182e+03  2.5986581894232506e+02  2.5173480037300408e+02  2.5667939148277827e+02  8.8843667442208266e+02  8.7974606710146656e+02  8.8503443861756375e+02  9.5745954897324714e+02  6.7090637408964744e+02  6.8394566907878175e+02  9.5747608968354871e+02  6.7739264167149133e+02  6.7088899058834352e+02  6.7741649632357053e+02  6.8392242369764244e+02  4.6779203456303918e+02  4.7682296583474920e+02  4.7453027680804644e+02  4.7008366903258474e+02  5.5295009788267464e+02  5.4346405302117819e+02  5.5384946137701263e+02  2.9033693284226928e+02  2.8949454823089900e+02  2.9954922516772803e+02  3.4597064112461010e+02  3.3670384996107674e+02  3.4686352694906424e+02  4.9599347878341808e+02  4.8657135235955849e+02  4.9689958573432045e+02  7.1633283616103569e+01  6.2667827057485965e+01  7.2497375097772547e+01  1.2575317075872424e+02  1.2492721964734005e+02  1.3478956258722087e+02  1.8030338240908208e+02  1.7122138016816632e+02  1.8118058982038255e+02  2.3513247007710299e+02  2.3429529898043248e+02  2.4428705473280576e+02  8.6201317754727336e+02  8.6111546959564771e+02  8.7179709140930561e+02  9.2100727417458654e+02  9.2010534928555307e+02  9.3085524074772775e+02  8.0348758735144190e+02  7.9375814683871488e+02  8.0441089038935718e+02  3.8308274611882257e+02  3.7443643398318994e+02  3.7677691429418331e+02  5.9023742523201054e+02  5.8205151338578253e+02  5.8456870842564797e+02  5.2245285607678477e+02  5.1632587184943839e+02  5.2318882914531400e+02  5.1559067341894695e+02  5.2171797294793305e+02  8.3208317564721006e+02  8.2506653415529058e+02  8.3276719853132499e+02  8.2437309253387912e+02  8.3141182182451018e+02  8.3345499694228931e+02  8.4046789600552677e+02  8.4115920038231593e+02  8.3414529894530972e+02  5.3343942995336818e+02  5.2611179065934027e+02  5.3051620481790337e+02  3.8498161208849922e+02  5.9351886333549999e+02  3.7722148165958473e+01  4.0460007537121720e+02  6.1276195836259308e+02  1.0177136621665563e+03  7.4233886813273193e+02  3.8002319625528628e+02  5.8786123622195885e+02  4.5793723588563591e+02  4.6017456642439998e+02  4.6555917407237507e+02  6.3488270160493221e+02  6.4603654004298630e+02  6.3572064188351032e+02  9.9466611067521990e+02  9.8309526329787252e+02  9.9381052918919841e+02  7.1987530186423032e+02  7.0873212751935841e+02  7.1913010616603560e+02  4.2646037020103137e+02  4.3725695588573058e+02  4.2716747245893976e+02  2.0774959652312342e+02  2.1498491094086799e+02  2.0778084374631177e+02  2.1495391122221923e+02  2.0771790215633325e+02  2.0054425427835125e+02  2.0051232153933472e+02  9.8718926131523091e+01  1.0586204235012050e+02  9.8747766053165535e+01  1.0583290511100708e+02  9.8689772640839564e+01  9.1604568984009788e+01  9.1575820677772924e+01  1.0956115674101868e+03  4.3959877485698939e+02  4.3882109217177577e+02  4.4896797138492678e+02  9.8045088461517673e+02  9.7054969998340562e+02  9.8130114476171821e+02  7.0634102112735536e+02  6.9670813331629631e+02  7.0715296526514851e+02  6.4853276457813183e+02  6.4773882199396735e+02  6.5811009945019180e+02  5.3473287880284124e+02  5.2895912105670095e+02  5.2822433978361948e+02  8.4437085187358048e+02  8.3856876023117377e+02  8.3788629349146913e+02  8.2117290985927775e+02  8.2696891889684639e+02  8.2765689671176256e+02  2.6415726338857900e+02  2.5495547590223728e+02  2.5710112575570980e+02  2.6201465511429274e+02  8.9301630232750699e+02  8.8318499198721327e+02  8.8547439960803342e+02  8.9072945925552528e+02  0.0000000000000000e+00  0.0000000000000000e+00  6.9673126030541521e+00  1.1407994264647953e+03  1.1407994264647953e+03  1.1331447051400098e+03  1.1407994264647953e+03  0.0000000000000000e+00  4.0593665956756701e+02  6.1409710580544208e+02  1.0166802288919575e+03  7.4123475730842495e+02  1.1191420308233580e+03  1.1192010330298008e+03  1.1191458018279175e+03  1.1192030841926965e+03  5.4569465530979713e+01  4.6197385028938186e+01  5.4212881350340801e+01  5.3882361703134819e+01  4.6567060671871459e+01  3.8548613281014902e+01  4.1802481021113442e+02  4.1816895749312920e+02  6.2636517774810704e+02  6.2650759667597436e+02  7.2862552224606236e+02  7.2844082243254911e+02  1.0038599832575383e+03  1.0020386001294147e+03  3.6808178319415777e+02  3.6573929166944936e+02  5.7559390084211589e+02  5.7307990997340426e+02  3.5750601593682774e+01  3.7183031624689278e+01  4.4800068266661818e+01  1.9557337485641302e+01  1.9615180993004397e+01  2.6858814850802491e+02  2.7072944676885186e+02  8.9775755002622122e+02  9.0004337441794996e+02  2.4414968881462780e+01  1.9037599051628181e+01  1.9173964267723218e+01  2.6588780403924744e+02  2.7461711680682282e+02  2.7195933175429150e+02  8.9487484022706906e+02  9.0420323046369674e+02  9.0136103427548596e+02  4.2244828952534550e+02  4.1616015309951757e+02  4.1475951662314844e+02  6.3124768022522358e+02  6.2468781401822696e+02  6.2326748901030533e+02  7.2368351422105002e+02  7.3034425462877198e+02  7.3174545853803477e+02  9.9907234574769245e+02  1.0042425066906161e+03  1.0070651249281756e+03  3.7066758285553982e+02  3.6198238597089642e+02  3.6452727344382731e+02  5.7828849630590003e+02  5.6932371590578032e+02  5.7199421103182715e+02  3.4991475549477350e+01  2.6044013611346237e+01  2.6789802572198596e+01  9.0140821624526063e+02  8.9116972907245304e+02  8.8697332552858393e+02  8.8093699321499298e+02  8.9721300024337040e+02  1.5313653307676222e+02  1.5805596181357538e+02  1.6301788780918230e+02  1.4817733289399683e+02  1.4326453559996733e+02  3.2729850337075624e+02  3.1773143625995488e+02  3.1318539950920564e+02  3.0817556305799593e+02  3.2275055261275992e+02  1.9875622870512095e+02  2.0776790820086680e+02  2.1228377084315991e+02  2.1679267375423126e+02  2.0326814334334526e+02  8.9833148105239928e+01  9.8733499804042452e+01  1.0319322727221397e+02  1.0764548397350239e+02  9.4290160395005103e+01  2.7201117725824361e+02  2.5850641041205273e+02  2.6808532044834504e+02  2.6243359545628527e+02  2.5286135202471567e+02  3.6236017815482631e+02  3.6722593746047539e+02  3.7029065452214758e+02  5.7015255057608761e+02  5.7484130281128364e+02  5.7792752490918474e+02  7.8613773257566902e+02  7.8019457102075341e+02  7.7790371475234110e+02  4.5652917675916791e+02  4.6216160774399953e+02  4.6444807786645964e+02  5.1419665523851484e+02  5.1869526157307780e+02  5.2161779045823016e+02  4.7070639027351353e+02  4.7293435179258364e+02  4.7807755863963956e+02  6.6734784919575668e+02  6.8254327708312803e+02  6.7236886924154328e+02  6.7751943963236522e+02  6.8769747411051094e+02  9.6116543814102852e+02  9.5060508561673976e+02  9.4541516978069421e+02  9.4005803916478078e+02  9.5597328892509927e+02  3.4613408283046688e+01  4.1661263660278017e+01  3.5357275864924424e+02  3.5615532462978729e+02  5.0363384282303565e+02  5.1218181933754352e+02  5.0634579839328842e+02  5.1487602841179876e+02  1.8768178484837128e+02  1.9592085122262907e+02  1.9028791150693408e+02  1.9850074827843912e+02  8.1133426062801595e+02  8.2020126674178266e+02  8.1414384871890388e+02  8.2298986446590368e+02  2.2782347391671544e+02  2.1951028322829322e+02  2.2513840947591547e+02  2.1685837568208908e+02  9.1313987366167089e+02  9.1025926534258213e+02  8.5419337794580929e+02  8.4531180670325978e+02  8.5132989382898393e+02  8.4249096877638226e+02  1.1853929029346297e+02  1.1033180824342379e+02  1.1588819620825929e+02  1.0771531704775663e+02  7.8910625649568743e+01  8.7045003644298546e+01  8.1485989878399195e+01  8.9592738315464700e+01  2.8297986853622626e+02  2.8028287559035067e+02  5.6067723220507980e+02  5.6333602405796557e+02  6.3814346387734497e+02  6.3215587386086202e+02  6.2945978941332294e+02  6.4090067453898246e+02  7.1678192563003370e+02  7.2279730402630526e+02  7.2568242845571945e+02  7.1390908205770347e+02  9.9122248819178208e+02  9.9749891003457287e+02  1.0002801460283114e+03  9.8840597829055991e