<?xml version="1.0"?>
<VTKFile type="UnstructuredGrid"  version="0.1"  >
<UnstructuredGrid>
<Piece  NumberOfPoints="2690" NumberOfCells="4864">
<Points>
<DataArray  type="Float64"  NumberOfComponents="3"  format="ascii">-5.016453043012604 22.003595370169 0  -5.616656418549138 21.2661339268437 0  -5.016121323565832 21.50389155993109 0  -5.015748228077551 21.00362244658721 0  -5.616974717855513 21.76619749320401 0  -6.2175153810413 21.52821724391071 0  -9 21.99999999996945 0  -8.399276813975648 21.26325177888237 0  -9 21.49999999997139 0  -9 20.99999999997333 0  -8.399333476494844 21.76324753037349 0  -7.798613289554129 21.52648577863927 0  -9 32.9999999999446 0  -8.400524145575792 32.26324005259116 0  -9 32.49999999994358 0  -9 31.99999999994255 0  -8.400580868215792 32.76324105197448 0  -7.801107901861678 32.5264737531771 0  -5.024735112134707 33.00389016176025 0  -5.540779200229467 32.30020782800594 0  -5.02438629619086 32.50440536440571 0  -5.024000970622919 32.00376819166511 0  -5.541106261767881 32.80030657613041 0  -6.05749662047857 32.59616574348475 0  -5.040627409928622 54.00372313690477 0  -5.638064158889502 54.74104626839677 0  -5.637751616563163 54.24120036098429 0  -6.234845615762896 54.478136423282 0  -5.040980344576832 54.50398546966824 0  -5.041320227460789 55.00375735978616 0  -9 54.99999999998974 0  -8.475339804793077 54.29674964165455 0  -9 54.49999999998872 0  -9 53.99999999998769 0  -8.475388574785709 54.79673465751557 0  -7.950738179815427 54.5934740394749 0  -9 39.99999999995897 0  -8.401486906877569 40.73822886012126 0  -8.401430200611607 40.23822954783165 0  -7.802914386146182 40.47644862626454 0  -9 40.49999999996 0  -9 40.99999999996102 0  -5.030765204803449 41.00345112048551 0  -5.602315943888855 40.2715300523117 0  -5.030420436838465 40.50400506111028 0  -5.030060838590195 40.00388772802533 0  -5.602635292144307 40.77147122210474 0  -6.17453411541722 40.5388632178839 0  -9 55.99999999999179 0  -8.427855365674525 56.74400135592083 0  -8.427807004544389 56.24399198869975 0  -7.855664708246726 56.48798352530774 0  -9 56.49999999999282 0  -9 56.99999999999384 0  -5.042127992730981 56.0035610854215 0  -5.614768025029793 56.74689022977013 0  -5.614456398702892 56.24687553536914 0  -6.186744422342521 56.4897489950791 0  -5.042502983072852 56.50410450295536 0  -5.042841360995554 57.00376782726207 0  -7.450113100446705 43.00203499605966 0  -6.60912783476994 43.1113481856437 0  -7.21364780934123 43.33971702775803 0  -6.977212692380676 43.67740220640817 0  -6.845563987702386 42.7736441791663 0  -6.240961628363334 42.54525337048126 0  -6.584928269199334 49.00383397698069 0  -7.42497364104378 48.89430640076836 0  -6.821097382647486 48.66612466495619 0  -7.057297699651445 48.32840430074928 0  -7.188775300696222 49.23200781695539 0  -7.792569530630203 49.46020923154045 0  -6.583546943129588 46.0036027874293 0  -7.424073710235382 45.89415804749768 0  -6.819852911306734 45.66585275821241 0  -7.056189699262663 45.32812124941935 0  -7.187739235737858 46.23188722038714 0  -7.791878746850349 46.46015795157849 0  -6.565681932399531 7.00373768148333 0  -7.41242352225162 6.894263098356505 0  -6.803737093224384 6.666026108076975 0  -7.041823029186005 6.328315504723064 0  -7.174339932988326 7.231973366160865 0  -7.782945451065104 7.46020600786103 0  -7.446288178806665 30.00201210706526 0  -6.60322668257619 30.11129788601422 0  -7.209239400436452 30.33963966336248 0  -6.972221058751775 30.67725511134955 0  -6.840246641962229 29.77365850153823 0  -6.234151558313412 29.54532412473483 0  -6.564339208610817 4.003560077500128 0  -7.411617574657337 4.110493128732463 0  -6.802799203911094 4.340580377992442 0  -7.041230090717489 4.677588717819583 0  -7.17318857523048 3.773477220444287 0  -7.782083171228614 3.543418145269756 0  -6.567047218163041 10.0037713295132 0  -7.413377135349239 10.1106342897487 0  -6.805245124290238 10.34074431626688 0  -7.043413367846601 10.67771731226503 0  -7.175206888586562 9.773664692584804 0  -7.783419021021011 9.543553985577853 0  -6.568415437249357 13.00380256682878 0  -7.414205008265746 12.89431541890403 0  -6.806201851807036 12.66609222382018 0  -7.044018865160655 12.32838318933947 0  -7.176389728205729 13.23203018715232 0  -7.784312008499556 13.4602468008461 0  -6.569788008680661 16.00386082731002 0  -7.41510022797924 15.89433213698751 0  -6.807439610913337 15.66615466120915 0  -7.045122130443877 15.32843923995108 0  -7.177419690265202 16.2320337305007 0  -7.784998930307687 16.46022846165928 0  -6.571166691684917 19.00345647175482 0  -7.416064578566151 19.11038932794183 0  -6.80896463469815 19.34036852425498 0  -7.046731520410693 19.67730226362288 0  -7.178295600555843 18.7734447181961 0  -7.785477613725249 18.54342280267529 0  -6.574832145367617 27.00332660264164 0  -7.418454831131195 27.11030775553129 0  -6.812269996615729 27.34031126797335 0  -7.049677568983521 27.67730105458891 0  -7.181045408690692 26.77329766284943 0  -7.78731120041084 26.54329892752204 0  -8.271741120159803 19.09491930184452 0  -8.028622112471959 18.81916536062201 0  -8.392707622984238 18.27172143339232 0  -8.635832757441197 18.54747535784408 0  -9 17.99999999998495 0  -8.272840191848058 27.09487829974805 0  -8.030088340966076 26.81908904927938 0  -8.393624615838517 26.27164618927489 0  -8.636382543284475 26.54743849611956 0  -9 25.99999999995395 0  -8.271301706422491 15.90724449983592 0  -8.028137623390883 16.18373852810933 0  -8.392530499017621 16.73010601919225 0  -8.635688468594442 16.45361628864208 0  -9 16.99999999998883 0  -5.749317444485302 30.09829593573254 0  -5.991720870723409 29.82180513335001 0  -5.627973953990912 29.27529981705823 0  -5.385560306596677 29.55195915146193 0  -5.021700286233934 29.00358884550115 0  -8.270890046147301 12.9072432694562 0  -8.027588385967061 13.1837442755839 0  -8.392186894205905 13.73012496505144 0  -8.635482490019205 13.45362337710984 0  -9 13.99999999999401 0  -8.270505529501667 10.0950340215567 0  -8.026974829692822 9.81929415997295 0  -8.3916786703791 9.271776386300777 0  -8.635215460112656 9.547516288313275 0  -9 8.99999999999857 0  -8.269699118626182 4.094967225531255 0  -8.025902661238316 3.819195708629032 0  -8.391016479618493 3.271703834769873 0  -8.634816145581187 3.547476122502123 0  -9 2.999999999998668 0  -8.270071239891953 6.907217082975236 0  -8.026495774402555 7.183710827401813 0  -8.391503481056901 7.730104091939173 0  -8.635072791732549 7.453610737589615 0  -9 7.999999999999485 0  -8.275427592490614 45.90716869296057 0  -8.033640489067633 46.18365918389685 0  -8.395970436876269 46.73008542026729 0  -8.637751373567852 46.45359529379932 0  -9 46.99999999997333 0  -8.275841247614018 48.90723060321177 0  -8.034192616392343 49.18372189908321 0  -8.396315901712398 49.73009617629494 0  -8.637958437247411 49.45361010693011 0  -9 49.99999999997949 0  -5.757323744392262 43.09833863106093 0  -5.999128844354052 42.82179381345384 0  -5.636276324311005 42.27517846134155 0  -5.394461674804616 42.55191105228152 0  -5.031492675895541 42.0034451152617 0  -5.74080012396912 23.92076059374032 0  -5.988601518749685 24.1881090822856 0  -5.627532456249305 24.73037671838401 0  -6.236376206068319 24.45546906587476 0  -5.379745610436237 24.46319890350892 0  -5.018757204331758 25.00358029184559 0  -8.280976908367736 52.08468152759554 0  -8.034598141774016 51.81731169128793 0  -8.394065428309347 51.2749857635685 0  -7.788194249016395 51.54995194883463 0  -8.640451322358308 51.54235537403896 0  -9 50.99999999998153 0  -5.749524987797111 38.08806317579293 0  -5.996356490558088 37.81991430067158 0  -5.635518944368149 37.27845023539665 0  -6.243214666834057 37.55177940063044 0  -5.388676235449071 37.54680160966722 0  -5.027717087943502 37.00328479891401 0  -5.747574236929999 34.9207249627844 0  -5.994861954291886 35.18804794145731 0  -5.634546337350589 35.73027140534784 0  -6.24212299474895 35.45538215693101 0  -5.387270921318678 35.4631438849927 0  -5.02704161130231 36.00342402810034 0  -7.89436933920613 50.50184218166299 0  -7.84127650161862 51.02590155765094 0  -8.447210937617687 50.75091164638537 0  -6.136114500035623 36.50355195987564 0  -6.189668710509978 37.02764311865389 0  -5.581915291285727 36.75405658596572 0  -6.189114472849703 35.97944489898684 0  -5.581596567593411 36.25402083628067 0  -5.991008323924678 25.26386559866271 0  -6.113683994267646 24.85967563712747 0  -5.50488784426313 25.13437920504627 0  -8.032189830793468 25.74710641163155 0  -7.909741297420252 26.14520256198618 0  -8.516106488692031 25.87355377558604 0  -6.9555971288102 34.37852305840779 0  -6.598822955127844 34.91697218582003 0  -6.85423296240405 35.24116790513829 0  -7.211011340866114 34.70274792043605 0  -7.466393882264927 35.02696647768484 0  -7.076872825070662 52.62671039733863 0  -7.432496905900319 52.08835005841402 0  -7.17793764149978 51.76420988953403 0  -6.822317450673311 52.30258081915667 0  -6.567730413049882 51.97846175219095 0  -6.957244846428381 38.62669543441798 0  -6.600266670610165 38.08925795606421 0  -6.855258439953382 37.76436086431524 0  -7.212232410875126 38.30182915637406 0  -7.467251599073341 37.97695551645582 0  -6.951339774782917 23.37854273729525 0  -6.593821150162078 23.91701779953016 0  -6.849762165762495 24.24122952764839 0  -7.207285114781757 23.70277926451216 0  -7.463198920335288 24.02700571611459 0  -7.887580574217664 17.50168399288713 0  -7.836523942290943 18.02255872111736 0  -8.443816588998837 17.75083216130788 0  -7.836294766180147 16.98095819369528 0  -8.443763990942923 17.2508474048141 0  -7.885697942924908 8.501723913627369 0  -7.83455348881232 9.02263928271603 0  -8.442874963480394 8.750862352904022 0  -7.931785948444162 2.417093717288846 0  -7.856923822036658 2.980251346973941 0  -8.465917724680693 2.708551963549144 0  -7.834326657240038 7.980965905162412 0  -8.442822926178863 8.250860740782571 0  -7.843474562780744 49.98102783395143 0  -8.447158238089006 50.25092655406382 0  -6.049808781135565 41.59658793072003 0  -6.145393016169117 42.07093546855371 0  -5.5
[...]
<PointData  Scalars="f_29"> 
<DataArray  type="Float64"  Name="f_29"  format="ascii">2.5673131477951517e+02  2.4800932080823205e+02  2.5080722974380950e+02  2.4489047574652017e+02  2.5389696472826566e+02  2.5109972388870221e+02  2.5672296687783330e+02  2.4799738469336782e+02  2.5079778912325921e+02  2.4488073551877949e+02  2.5388449906185980e+02  2.5109259642945040e+02  3.8607737649915077e+02  3.7730943226272984e+02  3.8012159691851349e+02  3.7417509164104723e+02  3.8322569173267425e+02  3.8042069378673244e+02  3.8606230418157770e+02  3.7773166838365637e+02  3.8013867185852490e+02  3.7422350898634295e+02  3.8363415089654433e+02  3.8122949918199106e+02  6.3468530022396169e+02  6.4354958323663334e+02  6.3757257203637118e+02  6.4040982975408099e+02  6.4068801488450845e+02  6.4671403756622999e+02  6.4667648394389380e+02  6.3826877696073768e+02  6.4070040731096958e+02  6.3472240824346875e+02  6.4423542795700371e+02  6.4180817695027145e+02  4.6859872298787985e+02  4.7740696951448473e+02  4.7146875260948883e+02  4.7429195013082699e+02  4.7457683177905449e+02  4.8054625216690152e+02  4.8055104129355891e+02  4.7184281401051538e+02  4.7459622982830297e+02  4.6863041882776747e+02  4.7778245223591443e+02  4.7502704156833045e+02  6.5856414005332761e+02  6.6748020602214069e+02  6.6150418854417649e+02  6.6441010169443143e+02  6.6454948516828563e+02  6.7056914514386494e+02  6.5858672244637057e+02  6.6749516609908824e+02  6.6152055256872870e+02  6.6442014426239427e+02  6.6456850920347495e+02  6.7058791405646355e+02  5.0420314730242990e+02  5.0548790561976233e+02  5.0819733107833946e+02  5.1219291734904641e+02  5.0149397554341112e+02  4.9878690742426994e+02  5.7530726458970435e+02  5.7401879521910666e+02  5.7130366452605881e+02  5.6730077088702137e+02  5.7802316271227301e+02  5.8073654194365167e+02  5.3974193418818675e+02  5.3845066040064603e+02  5.3574336311130730e+02  5.3174457214724896e+02  5.4244972327243147e+02  5.4515687621887821e+02  8.1374049498428633e+01  8.0105755906669344e+01  7.7445459691838735e+01  7.3517369601973428e+01  8.4035268069781281e+01  8.6694482689067371e+01  3.5065088462473386e+02  3.5192941835961926e+02  3.5462349066754098e+02  3.5859826392122153e+02  3.4795889764467330e+02  3.4526690213392811e+02  4.6475663511351868e+01  4.7728580885218335e+01  5.0395955336464553e+01  5.4316634214100944e+01  4.3808470882584750e+01  4.1142844481490265e+01  1.1632392592785145e+02  1.1758253303692885e+02  1.2025569136520849e+02  1.2418748452515585e+02  1.1365126869906345e+02  1.1098099234304104e+02  1.5131671884146382e+02  1.5004606245058443e+02  1.4737797849023997e+02  1.4343974465211636e+02  1.5398538197956157e+02  1.5665248384293986e+02  1.8635671716039104e+02  1.8508702445882972e+02  1.8241229418758391e+02  1.7846859162425915e+02  1.8903213772376751e+02  1.9170494936231731e+02  2.2146116424877874e+02  2.2272926794275318e+02  2.2541388438221443e+02  2.2936826238146568e+02  2.1877859037822211e+02  2.1609689310912407e+02  3.1537521645124980e+02  3.1664527650706765e+02  3.1933903566600821e+02  3.2330403349013352e+02  3.1268225359626746e+02  3.0998900525615056e+02  2.2255868494876444e+02  2.1932896013912165e+02  2.1293726778389200e+02  2.1616034089332501e+02  2.0979827088622463e+02  3.1647518943480895e+02  3.1323239439119737e+02  3.0681198713028965e+02  3.1004826401828279e+02  3.0364867740634168e+02  1.8524626907499868e+02  1.8847492756008810e+02  1.9485760501620149e+02  1.9162671868060875e+02  1.9797622209035063e+02  3.5176073863405531e+02  3.4851484245724799e+02  3.4209378442877306e+02  3.4532829467694751e+02  3.3893655337765193e+02  1.5020387199739076e+02  1.5342750676022754e+02  1.5979873730767338e+02  1.5658018575499310e+02  1.6292972253053620e+02  1.1741352281455798e+02  1.1419815097939320e+02  1.0783489888744371e+02  1.1104365070090368e+02  1.0470944341157765e+02  4.7559348541429742e+01  4.4351409194632758e+01  3.7998646612084428e+01  4.1207268170890558e+01  3.4885825398197007e+01  8.0260676725121371e+01  8.3477044457470114e+01  8.9832635972618661e+01  8.6614602915381354e+01  9.2937419430000489e+01  5.3861150215550038e+02  5.4188342869686755e+02  5.4835093913073104e+02  5.4508411798916848e+02  5.5152974743862160e+02  5.7418077717114193e+02  5.7745797223169495e+02  5.8393710388256670e+02  5.8065765831320755e+02  5.8710380432854333e+02  5.0532093810092528e+02  5.0205515783562839e+02  4.9559890503151257e+02  4.9885267148486508e+02  4.9243115229581406e+02  2.7915984946586701e+02  2.8230253847438917e+02  2.8865875241170733e+02  2.8544533029307615e+02  2.8551557532207653e+02  2.9185918168002621e+02  6.1193448044822446e+02  6.0875467265809323e+02  6.0232754073244394e+02  6.0557332126893959e+02  6.0550018825329892e+02  5.9910251394476563e+02  4.4602087552627665e+02  4.4286059996626273e+02  4.3648192551159161e+02  4.3969879779871252e+02  4.3962881713864743e+02  4.3328779907725260e+02  4.0861832303152539e+02  4.1177853063249268e+02  4.1816553352807011e+02  4.1493887106508845e+02  4.1499821085912822e+02  4.2136133215704899e+02  5.9311280376975344e+02  5.9934560993024525e+02  5.9608412694236392e+02  4.2732164533182038e+02  4.3351279285490773e+02  4.3028215084989682e+02  4.2112604858884839e+02  4.2436057309110464e+02  2.9494061223029900e+02  2.9019096764369141e+02  2.9341871160766965e+02  3.0063651074492128e+02  3.0531393479503203e+02  3.0212543856424793e+02  4.0225238967751000e+02  4.0859535208922506e+02  4.1242393376816483e+02  4.0607977188578002e+02  4.0990746389755913e+02  6.1836304637623346e+02  6.1196517972463494e+02  6.0810772808268268e+02  6.1450355463628989e+02  6.1064478344936674e+02  4.5239750743979789e+02  4.4604483313183283e+02  4.4221081061267233e+02  4.4856170740908300e+02  4.4472624387125887e+02  2.7281883292586406e+02  2.7913146691685881e+02  2.8293898684794516e+02  2.7662558780358677e+02  2.8043189447680504e+02  2.0389537695578588e+02  2.0999854282209884e+02  2.0682325279679230e+02  1.9779615400826418e+02  2.0095511218774493e+02  9.8833124148579955e+01  1.0490975211870789e+02  1.0174743944299132e+02  2.8045099002098194e+01  3.4597254669398353e+01  3.1447477681984420e+01  9.2759963723255666e+01  9.5904396715949702e+01  5.8692062394151515e+02  5.9012758074119711e+02  4.8756249845931819e+02  4.9317611134908259e+02  4.8997960322658741e+02  2.8825011774784207e+02  2.8684841526302193e+02  2.8434004943434911e+02  6.0114556866611883e+02  6.0335905970512238e+02  6.0589484783668138e+02  4.3531685611347160e+02  4.3750752374911991e+02  4.4002097013322117e+02  4.1934143314666557e+02  4.1714092448292462e+02  4.1462370314912067e+02  3.3582324173638108e+02  3.4054598967016346e+02  3.3736352456805906e+02  5.1261666643317596e+02  5.0569962571246879e+02  5.1240552620388394e+02  5.6687782819784002e+02  5.7380579343895022e+02  5.6708882543938671e+02  5.3131784369490219e+02  5.3823673340334835e+02  5.3153082154876165e+02  7.3097779146256826e+01  7.9894699407981506e+01  7.3307669712818395e+01  5.4722652858333340e+01  4.7932731145244233e+01  5.4520017285014561e+01  3.5911326955188218e+02  3.5218703593471184e+02  3.5885743383516956e+02  1.2459559008491711e+02  1.1778802021786284e+02  1.2439200954485113e+02  1.4302022994940981e+02  1.4983525048576251e+02  1.4323003740784091e+02  1.7805174521663707e+02  1.8487702242803317e+02  1.7825971607907766e+02  2.2987360186896166e+02  2.2298377304858826e+02  2.2962279713351106e+02  3.2371776090056500e+02  3.1685266323619800e+02  3.2351145596333089e+02  3.0615770998037738e+02  3.0807293740890594e+02  3.1076693622781437e+02  2.1180604904442941e+02  2.1395114383005873e+02  2.1663348357191410e+02  1.9591180360522768e+02  1.9380897584068424e+02  1.9113376064823578e+02  3.4130769853321164e+02  3.4328737204986589e+02  3.4597901009516477e+02  1.6072396955588965e+02  1.5868855570719870e+02  1.5601988177739045e+02  1.0679576849579347e+02  1.0888788591257617e+02  1.1155972209031370e+02  3.8496761094374122e+01  3.9819398824538268e+01  4.2486435706976337e+01  9.0886118444969767e+01  8.8790916637384427e+01  8.6129374330547435e+01  4.9478584124981819e+02  4.9678610450485695e+02  4.9949504049076774e+02  5.8500660900662240e+02  5.8287220134380152e+02  5.8015635701572955e+02  5.4928968718449721e+02  5.4722355828572893e+02  5.4451528579170667e+02  4.8129438192768424e+02  4.8405543760919926e+02  6.5264312367902608e+02  6.4652771222673061e+02  6.4965581472479676e+02  6.5263083538154683e+02  6.4721942437991265e+02  6.4965035168900033e+02  6.5852054978441242e+02  6.5559550647198807e+02  6.5853179756541397e+02  6.5561088403356382e+02  1.6425197521734415e+01  2.3979635450457813e+01  1.8170598644489733e+01  1.9914837509923817e+01  2.2232000684718411e+01  6.9718504773192353e+02  6.9721808733340004e+02  7.0177868632280070e+02  6.9724995772384364e+02  7.0174715580433076e+02  7.0630993507805022e+02  6.9718615719262345e+02  6.9721917252201388e+02  7.0177958574792319e+02  7.0174800752893873e+02  7.0630993507805022e+02  6.7867641158511617e+02  6.7154296602846830e+02  6.7461045202722141e+02  6.7868257432420990e+02  6.7155232253949032e+02  6.7462237320491715e+02  8.9909775314767728e+00  9.0204687049198924e+00  4.5256233052240677e+00  9.0510043993306244e+00  4.4954407731248391e+00  0.0000000000000000e+00  2.6067397907470519e+02  2.5631784773885795e+02  2.6154197819579048e+02  2.5545170034541709e+02  2.5981274042109646e+02  3.9004275276875035e+02  3.8566536919764184e+02  3.9090824612531782e+02  3.8480092749267402e+02  3.8918320710760253e+02  4.6463133888948181e+02  4.6902663701564711e+02  4.6376308349633331e+02  4.6989285312046559e+02  4.6549281931497859e+02  6.3155450330207486e+02  6.3598295946872031e+02  6.3430058567638457e+02  6.2987902615187693e+02  6.2819483290896642e+02  8.8811541086133765e+00  8.9655728777214829e+00  4.5261669266361748e+00  4.4401313877762911e+00  0.0000000000000000e+00  2.4165706934626749e+02  2.4637918399180839e+02  2.4328500025666105e+02  3.7093248624667461e+02  3.7567684787347099e+02  3.7256353023280053e+02  4.8367756309419320e+02  4.7898430321997563e+02  4.8210208601542860e+02  6.4652717255395100e+02  6.5264243847756643e+02  6.5264026399463205e+02  6.5852464751215837e+02  6.5263690152870004e+02  6.5852964555540905e+02  6.4722293631558387e+02  4.8073779668837221e+02  4.8700337555344134e+02  4.8644725396823884e+02  2.4868237853669856e+02  2.4988618558308298e+02  2.5511404874458432e+02  2.4988980500829598e+02  2.5632148400566956e+02  3.7719719588299438e+02  3.7880739413932952e+02  3.8405406265660201e+02  3.7921255744094628e+02  3.8606801963405616e+02  6.3844779765587816e+02  6.3943040189469582e+02  6.3332010350384826e+02  4.7673306283007122e+02  4.7587996969777913e+02  4.8159083891681797e+02  4.6939165249686039e+02  4.7024588339975918e+02  4.7551413099606845e+02  6.6335043824305160e+02  6.6388596157143081e+02  6.5799501898567735e+02  6.6388091132101397e+02  6.6909810701333356e+02  6.6856675328952679e+02  6.7378165239006614e+02  6.4012800731197228e+02  6.4554327229578723e+02  6.6910266704960316e+02  2.6134555693270340e+02  2.5622384397901885e+02  2.6144111024873206e+02  3.9071581898702158e+02  3.8597324661735007e+02  3.9081031280410497e+02  4.6397145006096804e+02  4.6949731024648008e+02  4.6387107605343363e+02  2.0785255239280349e+02  1.9990154473132421e+02  1.0281638130966246e+02  3.3273243136410755e+01  9.4857458372979224e+01  5.8905765745858116e+02  6.3442157262707690e+02  6.2929624712004647e+02  6.3039386998799750e+02  6.3609955603858293e+02  2.0389989348438945e+02  1.9990529920288489e+02  2.0389815919608145e+02  2.0785291318258808e+02  9.8839882804694597e+01  9.4862525958758027e+01  9.8836879916076754e+01  2.9035435378187827e+01  3.3766451005925155e+01  2.8541329013774259e+01  1.0281787955717337e+02  5.9311488031485385e+02  5.8906014459231085e+02  5.9311435672156847e+02  2.3782340368426367e+02  2.4517244017150207e+02  2.4325186135027610e+02  2.3974271416707637e+02  3.6709256860810626e+02  3.7406707392754845e+02  3.7214415374118846e+02  3.6901452798944035e+02  4.8020267414128273e+02  4.8506013756255265e+02  4.9117323366465138e+02  4.9061734227758956e+02  6.8979822744150556e+02  6.8196475888483110e+02  6.8752744749597321e+02  6.8525730848058186e+02  6.8423837036205293e+02  6.8979779339607421e+02  6.8196669376288116e+02  6.8752751904589002e+02  6.8424010567474591e+02  6.7622912214139660e+02  6.7622557848308622e+02  1.6698685965036850e+02  1.6181775779554869e+02  1.6497693834644411e+02  5.5564674303094773e+02  5.5039989271598972e+02  5.5360677987852648e+02  5.9713098919135564e+02  4.2332854321347901e+02  4.3132053687120714e+02  5.9713016458358720e+02  4.2731478168889680e+02  4.2332790858363427e+02  4.2731786502018684e+02  4.3131600817442450e+02  2.9775370393223579e+02  3.0339727597682480e+02  3.0195599477516731e+02  2.9919464432409268e+02  3.5065639310657411e+02  3.4478613263322046e+02  3.5120978162199708e+02  1.8633575814449262e+02  1.8579118720777626e+02  1.9216349613012383e+02  2.2145535564365252e+02  2.1561956900965387e+02  2.2200720003628231e+02  3.1536770709120617e+02  3.0950375573997036e+02  3.1592178955181657e+02  4.6464867627698609e+01  4.0667901513040945e+01  4.7012581327838113e+01  8.1344515391984359e+01  8.0802393296114502e+01  8.7148979124532488e+01  1.1631556436420301e+02  1.1050513064251470e+02  1.1686497702452873e+02  1.5129306040520899e+02  1.5074869390053590e+02  1.5711560153206074e+02  5.3971808979620675e+02  5.3916506427236766e+02  5.4562799306040529e+02  5.7528693390523654e+02  5.7473404472033553e+02  5.8120280461348636e+02  5.0421127843556235e+02  4.9830855188324330e+02  5.0476769035648971e+02  2.4474091840683548e+02  2.3931206079157982e+02  2.4079586101576569e+02  3.7369137200613193e+02  3.6863939251703061e+02  3.7018322978491727e+02  3.3177655371645062e+02  3.2796829363466338e+02  3.3221957243941898e+02  3.2752511225902134e+02  3.3133415503463499e+02  5.2153725917525526e+02  5.1729369913658957e+02  5.2196828767095667e+02  5.1685973444360684e+02  5.2110750390367627e+02  5.2240004506652485e+02  5.2664252293798450e+02  5.2707612337284104e+02  5.2283303085034640e+02  3.3856506670400245e+02  3.3402029864438265e+02  3.3676364959575750e+02  2.4594372089199092e+02  3.7570606478317762e+02  2.4474327425649239e+01  2.5827236651190856e+02  3.8763503147848320e+02  6.3311712008444954e+02  4.6704151788216512e+02  2.4284682539173457e+02  3.7220637029169950e+02  2.9159447966235177e+02  2.9300145833181790e+02  2.9634770170375032e+02  4.0121384473546459e+02  4.0807393924194866e+02  4.0173268886031980e+02  6.1940628932286324e+02  6.1248815818876506e+02  6.1888655160392113e+02  4.5330343575253033e+02  4.4649880153886392e+02  4.5285180926177429e+02  2.7192616104631617e+02  2.7868347876349372e+02  2.7237196897551996e+02  1.3380740557989344e+02  1.3841566483257679e+02  1.3381142891078795e+02  1.3841182155183901e+02  1.3380330671458887e+02  1.2920309024023976e+02  1.2919886284758923e+02  6.3910043738991355e+01  6.8506133486004401e+01  6.3914678892047100e+01  6.8501654691505422e+01  6.3905537014305487e+01  5.9318227942748202e+01  5.9313581868440004e+01  6.7952104709502009e+02  2.8014419466018967e+02  2.7965483574782809e+02  2.8599820841064792e+02  6.1093482209853403e+02  6.0501155495440355e+02  6.1143364151121034e+02  4.4503393463698433e+02  4.3914664347037831e+02  4.4552744840773960e+02  4.0960381215592201e+02  4.0911316181658208e+02  4.1548343631778067e+02  3.3939832041407846e+02  3.3580868949305949e+02  3.3536629192386374e+02  5.2897513021969303e+02  5.2547094345685662e+02  5.2504140685410971e+02  5.1496426158224506e+02  5.1846655038543236e+02  5.1889766590276929e+02  1.6968561666607800e+02  1.6385476098347729e+02  1.6520434910584768e+02  1.6833713569745814e+02  5.5838592485374681e+02  5.5246744449029268e+02  5.5383736464939182e+02  5.5701716010221378e+02  0.0000000000000000e+00  0.0000000000000000e+00  4.5256062542185393e+00  7.0630993507805022e+02  7.0630993507805022e+02  7.0177959053632719e+02  7.0630993507805022e+02  0.0000000000000000e+00  2.5904321006341451e+02  3.8839572962509510e+02  6.3256051223338829e+02  4.6631342432289773e+02  6.9349172777147589e+02  6.9352266045908425e+02  6.9349273336011470e+02  6.9352333256310749e+02  3.5365112509917459e+01  2.9933721515162176e+01  3.5123132469711770e+01  3.4901823213304979e+01  3.0182377736387529e+01  2.4995146964084551e+01  2.6663550510059406e+02  2.6673403482660120e+02  3.9596477750425385e+02  3.9606105280965056e+02  4.5863731231293542e+02  4.5853274305558739e+02  6.2489777397306364e+02  6.2380132858327238e+02  2.3533199881492868e+02  2.3384859797695415e+02  3.6464577297921244e+02  3.6310389814144867e+02  2.3193208696842881e+01  2.4106805636890307e+01  2.9041517150187513e+01  1.2706766628908014e+01  1.2738890756370999e+01  1.7252086848537826e+02  1.7386735350604374e+02  5.6126382739542930e+02  5.6263046509049252e+02  1.5849627089225129e+01  1.2364371705461160e+01  1.2450297837269559e+01  1.7082486101539845e+02  1.7635965174419920e+02  1.7469177951587400e+02  5.5954249306272811e+02  5.6516040867383663e+02  5.6346705525500181e+02  2.6943941022933348e+02  2.6549031380769617e+02  2.6462560072551923e+02  3.9900173296089133e+02  3.9495455814113166e+02  3.9409182384169429e+02  4.5565091263846841e+02  4.5970676198628900e+02  4.6057211097357481e+02  6.2200891997145482e+02  6.2510224061352824e+02  6.2677987994782018e+02  2.3697220038803582e+02  2.3151200609624789e+02  2.3312449456929718e+02  3.6630201515311848e+02  3.6076735161267777e+02  3.6240051766232637e+02  2.2724078374637852e+01  1.6918753136414526e+01  1.7409641186652280e+01  5.6342885146545086e+02  5.5725342898689973e+02  5.5473188113308788e+02  5.5107940868418507e+02  5.6090764920820845e+02  9.8845769313579595e+01  1.0200946915920186e+02  1.0517860882318617e+02  9.5676579992117411e+01  9.2514279408022190e+01  2.0962480519440425e+02  2.0358289538580058e+02  2.0072110797767030e+02  1.9754369413774950e+02  2.0676263784355757e+02  1.2802952074454279e+02  1.3378224783271517e+02  1.3667354229100343e+02  1.3953677942910724e+02  1.3092053312067497e+02  5.8149404619592637e+01  6.3886855458106567e+01  6.6769747066982461e+01  6.9626004053146190e+01  6.1032095649902914e+01  1.7465377375906561e+02  1.6608531994590948e+02  1.7216996262755049e+02  1.6856936907190394e+02  1.6248606732470014e+02  2.3170000151488989e+02  2.3476325471410243e+02  2.3667635917334115e+02  3.6132039123363728e+02  3.6420779779132425e+02  3.6612463501433211e+02  4.9369371661859066e+02  4.9006919051518594e+02  4.8868735924655113e+02  2.9074571646792833e+02  2.9425076670833340e+02  2.9568874304260123e+02  3.2661634050858106e+02  3.2941967020506399e+02  3.3121849392778330e+02  2.9954650088608992e+02  3.0095025650713785e+02  3.0414923182886196e+02  4.2117834596763589e+02  4.3048228518309145e+02  4.2424592259454033e+02  4.2741353255790062e+02  4.3364928336092811e+02  5.9932165491295098e+02  5.9299037063020705e+02  5.8988774062920288e+02  5.8666192260394325e+02  5.9621877338725858e+02  2.2455410427602704e+01  2.7017063590665902e+01  2.2621500750022156e+02  2.2785352527056256e+02  3.2009634483960792e+02  3.2541655447167113e+02  3.2179545267427613e+02  3.2710211323774547e+02  1.2100422689061443e+02  1.2627872234123248e+02  1.2268666920523548e+02  1.2794203388401094e+02  5.0896859944442900e+02  5.1433136031583467e+02  5.1067778352618552e+02  5.1601729216048568e+02  1.4661210204105558e+02  1.4132753658863552e+02  1.4491934903218390e+02  1.3965453076738464e+02  5.7052992684715275e+02  5.6881212148117493e+02  5.3496490814852984e+02  5.2960123000790816e+02  5.3324833937304470e+02  5.2791161104879950e+02  7.6679513648170015e+01  7.1409003607891847e+01  7.4990424284165869e+01  6.9740559582009567e+01  5.1140618654540866e+01  5.6401198492710975e+01  5.2818772712573562e+01  5.8060046940589501e+01  1.8164964041757739e+02  1.7995723118911448e+02  3.5543645791432971e+02  3.5708531298346475e+02  4.0322621367879475e+02  3.9952244670347795e+02  3.9785339732846961e+02  4.0491619820929611e+02  4.5141886816915485e+02  4.5507390444557655e+02  4.5682208260963068e+02  4.4966129830797780e+02  6.1736434274454177e+02  6.2110999790028745e+02  6.2278012579399126e+02  6.1566910201588837e