<?xml version="1.0"?>
<VTKFile type="UnstructuredGrid"  version="0.1"  >
<UnstructuredGrid>
<Piece  NumberOfPoints="2690" NumberOfCells="4864">
<Points>
<DataArray  type="Float64"  NumberOfComponents="3"  format="ascii">-5.045894260422646 22.01007268702453 0  -5.640881787986534 21.27267069883595 0  -5.044981228551719 21.51089868839247 0  -5.043923507793274 21.01013210060878 0  -5.641780879078757 21.77285267716111 0  -6.237688411574469 21.53400650538985 0  -9 21.99999999996945 0  -8.403575552740509 21.26460489958988 0  -9 21.49999999997139 0  -9 20.99999999997333 0  -8.40373534687952 21.76459312063189 0  -7.807320060715027 21.52915997299887 0  -9 32.9999999999446 0  -8.407081054680638 32.26457219841342 0  -9 32.49999999994358 0  -9 31.99999999994255 0  -8.407240827700894 32.76457517451445 0  -7.814330271498462 32.52912659427201 0  -5.069159384744355 33.01089203913826 0  -5.578650238523512 32.30713518046937 0  -5.068203119510061 32.51233685263423 0  -5.067090472398865 32.01054273670763 0  -5.579577900066443 32.80741313362793 0  -6.090017484320867 32.60237414809029 0  -5.114069809655613 54.01039574772935 0  -5.701257707304066 54.7474108730186 0  -5.700372142363075 54.24784348233636 0  -6.286560025750111 54.48376793276603 0  -5.115092988806405 54.51115448611391 0  -5.11603004186256 55.01050472292494 0  -9 54.99999999998974 0  -8.485113185023144 54.29789224007634 0  -9 54.49999999998872 0  -9 53.99999999998769 0  -8.485252678901229 54.79784946439277 0  -7.970394423603413 54.59571262445756 0  -9 39.99999999995897 0  -8.409794108159321 40.73953982607168 0  -8.409634326153098 40.23954196069986 0  -7.819421090707999 40.47905406715456 0  -9 40.49999999996 0  -9 40.99999999996102 0  -5.086146595100081 41.00964670734728 0  -5.648925348371627 40.27819769355594 0  -5.085199927288617 40.51120454721838 0  -5.084169513826264 40.01086118379378 0  -5.649826474808264 40.77803400450626 0  -6.21355594345086 40.54466163565789 0  -9 55.99999999999179 0  -8.43898296095495 56.74521584153678 0  -8.438844912779135 56.24518892097712 0  -7.877834415093213 56.49037704095728 0  -9 56.49999999999282 0  -9 56.99999999999384 0  -5.118338412500123 56.00993442565043 0  -5.680781243372998 56.75328753329742 0  -5.67990423430298 56.2532457481085 0  -6.241325335837479 56.49530981794808 0  -5.119425645350682 56.51148791646604 0  -5.120359249225197 57.01053467071405 0  -7.472841995572114 43.00570203635576 0  -6.644286209463436 43.11707660376113 0  -7.240052552264446 43.34400626198634 0  -7.007346706654385 43.68231867785264 0  -6.876992368611852 42.77871032320287 0  -6.280996803567429 42.55172067556978 0  -6.625352136057551 49.0107571371772 0  -7.451275589140761 48.89877973560364 0  -6.857303750167468 48.67237673746391 0  -7.089346950418891 48.33396445534164 0  -7.2192396633974 49.23713848145078 0  -7.812976194727482 49.46359696780698 0  -6.62146787265815 46.01010532596084 0  -7.448744226477419 45.89835952360816 0  -6.853809716929178 45.671608198538 0  -7.086239475555498 45.33316311660779 0  -7.21632059914266 46.23679737817204 0  -7.811027085706386 46.46345140508117 0  -6.571302406066046 7.010467757779711 0  -7.416030065471667 6.898644347600989 0  -6.808556233546016 6.672081618939123 0  -7.045898206351667 6.33369802709521 0  -7.178694279248932 7.237026540704121 0  -7.785940912312898 7.463577432814401 0  -7.462068176701344 30.00563769242145 0  -6.627663384796689 30.11693408892657 0  -7.227637186645321 30.3437881351288 0  -6.993291506415197 30.68190396785426 0  -6.862012044742253 29.77875020206578 0  -6.261807329897137 29.5519180356583 0  -6.567580266461304 4.009967594223201 0  -7.413795900283122 4.114673962827811 0  -6.805956022958525 4.346417446015971 0  -7.044254275299008 4.682834295484289 0  -7.175502800373525 3.7782365119084 0  -7.783550474075647 3.5465711811514 0  -6.575104037052888 10.01055909042385 0  -7.418684644005516 10.11506935036163 0  -6.812754593590461 10.34687686948764 0  -7.050324917970164 10.68319498170705 0  -7.18110794468801 9.778761283681176 0  -7.787259236228874 9.546951397425783 0  -6.578915169003285 13.01065045047029 0  -7.420990059330589 12.89879151346607 0  -6.815419515294536 12.67226776529997 0  -7.052011464573855 12.33388852812267 0  -7.184401663588518 13.23718633735937 0  -7.789745557516266 13.46369216204697 0  -6.582744473414576 16.01081347451272 0  -7.423490486936671 15.89883903772616 0  -6.818872731381014 15.67244267709789 0  -7.055090306193095 15.33404576064421 0  -7.187279671637268 16.23719712769556 0  -7.791667179346748 16.46364177410107 0  -6.58663853777331 19.00968407540796 0  -7.42621357507983 19.11438651967036 0  -6.823182765311635 19.34582915890642 0  -7.059637212969928 19.68203521684157 0  -7.189752099949484 18.7781494011649 0  -7.79301822644684 18.54658663276925 0  -6.596942881784467 27.00932204043839 0  -7.432933981417712 27.11415965546522 0  -6.832468464090655 27.34567107882039 0  -7.067910751638383 27.68203466188888 0  -7.197488343802253 26.77773888906219 0  -7.798179149275881 26.54624039069379 0  -8.276403217533071 19.09675406603515 0  -8.034746893809933 18.82165440676069 0  -8.396420705360324 18.27332146125748 0  -8.638094341562102 18.54842115843865 0  -9 17.99999999998495 0  -8.279494000552505 27.096639944363 0  -8.038871897062796 26.82144142418796 0  -8.399002810788044 26.27311093385703 0  -8.639641781066702 26.54831809076124 0  -9 25.99999999995395 0  -8.275162822131051 15.90930719085974 0  -8.033379250515962 16.18648021405545 0  -8.395920790891719 16.7317980441057 0  -8.637687064505842 16.45463700311275 0  -9 16.99999999998883 0  -5.782457217947946 30.10621819671896 0  -6.022094126535468 29.82905563488914 0  -5.661373388200428 29.28336180659302 0  -5.421718077112512 29.56099807121288 0  -5.06059735345799 29.01005816340966 0  -8.274012342689288 12.90930321433636 0  -8.031843613259745 13.1864955699011 0  -8.394958591761554 13.73185047100864 0  -8.637110675858947 13.45465649243516 0  -9 13.99999999999401 0  -8.272941666186663 10.09707397153876 0  -8.030135231450966 9.822013103841623 0  -8.393543552474355 9.273474035490279 0  -8.636367179137773 9.548534980184888 0  -9 8.99999999999857 0  -8.270701324510743 4.096886839716062 0  -8.027157525780868 3.821737418215553 0  -8.391705677156766 3.273270973577597 0  -8.635258550532454 3.548422518933176 0  -9 2.999999999998668 0  -8.271732903169715 6.909229572384037 0  -8.02880175251852 7.186401499094249 0  -8.393055883083795 7.731791725299998 0  -8.635970057430375 7.454620930989694 0  -9 7.999999999999485 0  -8.286773772208139 45.9090983429184 0  -8.048864885094648 46.18626316394452 0  -8.405600403736363 46.73174400634902 0  -8.643492062555051 46.45458021952684 0  -9 46.99999999997333 0  -8.287937898444245 48.9092741620685 0  -8.050420646885398 49.18644122719994 0  -8.406576582454013 49.7317748127412 0  -8.644076348500363 49.45462242967763 0  -9 49.99999999997949 0  -5.805015410118919 43.10634042233368 0  -6.042967246455969 42.82902628363569 0  -5.684771416234659 42.28302428949031 0  -5.446804146487818 42.56086734747618 0  -5.088191856791578 42.00965037913915 0  -5.767116251525298 23.92875748761556 0  -6.013191868168838 24.195405971008 0  -5.655704580831217 24.73843685214027 0  -6.259191978769127 24.46208759320058 0  -5.409679838745051 24.47226567304011 0  -5.052330981017836 25.01001529514715 0  -8.293802918929032 52.086494542418 0  -8.051726393785515 51.81978515309549 0  -8.40469818614346 51.27657987625419 0  -7.809577894095525 51.55310418608957 0  -8.646794987728313 51.54328865588064 0  -9 50.99999999998153 0  -5.791656735233643 38.09597408610257 0  -6.035005207707552 37.82708199865183 0  -5.678169267267752 37.28630189213533 0  -6.278428278753438 37.55822534309143 0  -5.434800157403922 37.55576557436569 0  -5.077534891434583 37.0092021596317 0  -5.78615669632108 34.92865999685211 0  -6.030790900002337 35.19523649691778 0  -5.675424028980708 35.73814209375192 0  -6.275349766992628 35.46184489021933 0  -5.430834112730595 35.47211374082769 0  -5.075622044981466 36.00956331020082 0  -7.913465330187329 50.50485123833542 0  -7.861506107256869 51.02899041076368 0  -8.45680757155989 50.75239909284816 0  -6.171653688810869 36.50994565588505 0  -6.225052302842873 37.03402278228737 0  -5.624621546623271 36.76135853113485 0  -6.223488536907406 35.98583053601718 0  -5.62371604878925 36.26124999840412 0  -6.016669774499947 25.27089683465227 0  -6.137908729567656 24.86651430860024 0  -5.534547969158161 25.1422945022276 0  -8.040601085987753 25.74943288297708 0  -7.919364325087943 26.14783630470788 0  -8.520332763999289 25.8747180809959 0  -6.979457872392426 34.38324545444095 0  -6.627299442627928 34.92260195011735 0  -6.879922250095114 35.24616058339402 0  -7.2320931793 34.70688686795806 0  -7.484639117404172 35.03051046007631 0  -7.111553835452228 52.63142237901728 0  -7.460460252503041 52.0923168475333 0  -7.210229351684312 51.76891413871452 0  -6.861333690483106 52.30805018528781 0  -6.611022452397209 51.98470705617855 0  -6.984102021250752 38.63137793352979 0  -6.631369265235179 38.09485950797487 0  -6.882813200202303 37.76933332960622 0  -7.235534960371592 38.30593964718738 0  -7.487056807761435 37.98047995312934 0  -6.967491908768028 23.38329939582293 0  -6.613238797995317 23.92272833020811 0  -6.86735192352495 24.24633238030465 0  -7.221618407519679 23.70697363881232 0  -7.475656215046464 24.03061965557897 0  -7.894084542900799 17.50471758045937 0  -7.843536349743181 18.02566711187469 0  -8.447116528375123 17.75233135851742 0  -7.842889738589854 16.98418517908471 0  -8.446968089859713 17.2523739473514 0  -7.888828239840988 8.504827382668813 0  -7.838030058816758 9.025890343866438 0  -8.444486155603384 8.7524147721179 0  -7.932744885355211 2.419791058084402 0  -7.85811835995638 2.9831683622225 0  -8.466440646450874 2.709909703817388 0  -7.83739857476244 7.984205051118997 0  -8.444341297121726 8.252410292822393 0  -7.863235188369134 49.9842300688741 0  -8.456657242654368 50.2524411940961 0  -6.091637433188187 41.60286703690223 0  -6.186340639218313 42.07733690669366 0  -5.5899
[...]
<PointData  Scalars="f_29"> 
<DataArray  type="Float64"  Name="f_29"  format="ascii">2.9431952883693663e+02  2.8424338485963830e+02  2.8747309542985624e+02  2.8063738801852753e+02  2.9104851245910316e+02  2.8780787505702494e+02  2.9426354259740810e+02  2.8418722415760936e+02  2.8741587359670592e+02  2.8057768021935698e+02  2.9099262713852681e+02  2.8777422946411752e+02  4.4447918792493851e+02  4.3426849031658526e+02  4.3753854360990476e+02  4.3060906487726288e+02  4.4116533481501352e+02  4.3790330639958319e+02  4.4450444453524750e+02  4.3479584380953196e+02  4.3759875719956892e+02  4.3070823057633896e+02  4.4167767488313251e+02  4.3886926394656189e+02  7.3678945073257285e+02  7.4729327142845318e+02  7.4021013164826240e+02  7.4356647491872661e+02  7.4390153225270558e+02  7.5104382795291906e+02  7.5096040832071833e+02  7.4099820493027210e+02  7.4387483926480081e+02  7.3678816227704601e+02  7.4807346268871379e+02  7.4520195773702858e+02  5.4098361538161646e+02  5.5131898875639661e+02  5.4435511183466497e+02  5.4767429454468345e+02  5.4799232003017062e+02  5.5499202503476567e+02  5.5504430530948059e+02  5.4482922124498623e+02  5.4805762405630446e+02  5.4106008325677658e+02  5.5179870175806923e+02  5.4855959460806935e+02  7.6506563016846098e+02  7.7565229478863398e+02  7.6856011208175050e+02  7.7201631573192435e+02  7.7216867911479846e+02  7.7931076678328179e+02  7.6512800677479117e+02  7.7569822776812873e+02  7.6860902860088731e+02  7.7204616151234507e+02  7.7222513205847110e+02  7.7936849174466897e+02  5.8278616373744921e+02  5.8430234820836051e+02  5.8748219243726066e+02  5.9218153626872095e+02  5.7960896694262897e+02  5.7643329696596300e+02  6.6652596999323987e+02  6.6499451363070727e+02  6.6179731597407329e+02  6.5707074198553403e+02  6.6972559178574977e+02  6.7292194739225545e+02  6.2459552537584159e+02  6.2306580543063330e+02  6.1988651195778652e+02  6.1517779817314363e+02  6.2777753407402110e+02  6.3095810454100240e+02  9.2718807488904858e+01  9.1258935894819118e+01  8.8228077182332427e+01  8.3738720827993518e+01  9.5752210187542005e+01  9.8782833686891735e+01  4.0323073790861326e+02  4.0472488735028890e+02  4.0785666757237072e+02  4.1248674388366572e+02  4.0010380275398120e+02  3.9697721161394452e+02  5.2894138283691021e+01  5.4313719497716974e+01  5.7360739105821501e+01  6.1828362896676708e+01  4.9849289779547938e+01  4.6805543121405144e+01  1.3270224443945813e+02  1.3413183877703173e+02  1.3720328698180558e+02  1.4170487634521561e+02  1.2963275948529457e+02  1.2656595132094520e+02  1.7282821661760914e+02  1.7135747995749696e+02  1.6830388382525979e+02  1.6378091027766845e+02  1.7588381556633766e+02  1.7893727095326628e+02  2.1310218066466416e+02  2.1163002464528364e+02  2.0856015824179872e+02  2.0402017933242288e+02  2.1617435024216351e+02  2.1924318211024274e+02  2.5355707073067106e+02  2.5501246164263947e+02  2.5811811802218182e+02  2.6268212237378975e+02  2.5045609700145977e+02  2.4735489170522573e+02  3.6223727398200811e+02  3.6370474498319118e+02  3.6683850932861287e+02  3.7144181801303915e+02  3.5910708575606060e+02  3.5597534149622527e+02  2.5480450768627159e+02  2.5108091428183917e+02  2.4370140304880891e+02  2.4741585760089211e+02  2.4007105256339867e+02  3.6349705285642392e+02  3.5973643703661685e+02  3.5228120875614326e+02  3.5603290080432407e+02  3.4860250113256581e+02  2.1180074745479911e+02  2.1552110779003999e+02  2.2286449978630279e+02  2.1914022616289571e+02  2.2644873605916320e+02  4.0452923331218324e+02  4.0075494831564799e+02  3.9329470134877096e+02  3.9704441429790558e+02  3.8963220178714471e+02  1.7152484114683708e+02  1.7523019318773734e+02  1.8254099689840501e+02  1.7884008226146111e+02  1.8612802344302466e+02  1.3392447783966412e+02  1.3024616615522305e+02  1.2295418132236196e+02  1.2662368805243797e+02  1.1936618135568048e+02  5.4109593847448842e+01  5.0457881656649548e+01  4.3215916325766827e+01  4.6866999613824156e+01  3.9662452887408946e+01  9.1423219750045774e+01  9.5102299171666928e+01  1.0236052083152477e+02  9.8678262006061075e+01  1.0590163014512204e+02  6.2324297247284733e+02  6.2709959608846111e+02  6.3471211899508262e+02  6.3085974347100932e+02  6.3844930415364445e+02  6.6517379353784509e+02  6.6904699284602998e+02  6.7669375631550577e+02  6.7281663580572410e+02  6.8042907018305891e+02  5.8410662263656059e+02  5.8027175228969327e+02  5.7269533786964712e+02  5.7650493928451385e+02  5.6898340497056790e+02  3.2025285437841569e+02  3.2389450843536406e+02  3.3126843540286592e+02  3.2753559327455434e+02  3.2761345829177685e+02  3.3498889901396137e+02  7.0980215620568401e+02  7.0604244618638677e+02  6.9843181788096922e+02  7.0228127846059601e+02  7.0218188960658392e+02  6.9460537533509194e+02  5.1454942154304376e+02  5.1085209668524493e+02  5.0339615493900408e+02  5.0715260970849334e+02  5.0706468080424202e+02  4.9966820932714580e+02  4.7081294216608342e+02  4.7450647153744472e+02  4.8197940094908409e+02  4.7819969375332204e+02  4.7826529473300081e+02  4.8572946991607972e+02  6.8754360386439464e+02  6.9491438603540087e+02  6.9104913469139433e+02  4.9268612068023907e+02  4.9992087386338403e+02  4.9615602289504176e+02  4.8543667990843028e+02  4.8922906348492643e+02  3.3854970273882986e+02  3.3303941743279114e+02  3.3679299559692646e+02  3.4512405783770799e+02  3.5055045903297520e+02  3.4684443994436850e+02  4.6337564422266837e+02  4.7078414863323940e+02  4.7525527465130477e+02  4.6784249916562118e+02  4.7231047045010183e+02  7.1742757793505916e+02  7.0984978694380175e+02  7.0528767851775012e+02  7.1286117031303411e+02  7.0829691232289838e+02  5.2201414565629671e+02  5.1457637233808396e+02  5.1008711907542926e+02  5.1751996793623721e+02  5.1302691019389783e+02  3.1290805308431101e+02  3.2021792650119835e+02  3.2462608518977487e+02  3.1731245609488502e+02  3.2171716111559834e+02  2.3328423801162904e+02  2.4032126866105176e+02  2.3665195828994504e+02  2.2625815732046894e+02  2.2988837799568208e+02  1.1266118575426977e+02  1.1961573123109685e+02  1.1598762433084684e+02  3.1890250190586301e+01  3.9350461919417306e+01  3.5756184545980304e+01  1.0571671980242364e+02  1.0930296008701669e+02  6.8022716606159099e+02  6.8400791820431300e+02  5.6326575326739601e+02  5.6984954599222112e+02  5.6610779950697088e+02  3.3077897987810104e+02  3.2915861648254543e+02  3.2624611256985935e+02  6.9705342424883384e+02  6.9966695819606116e+02  7.0267438322368957e+02  5.0202114284882975e+02  5.0458712917307037e+02  5.0752206496557710e+02  4.8334008282610978e+02  4.8077132910483596e+02  4.7782312860477072e+02  3.8600623680409075e+02  3.9149159001438727e+02  3.8780363562839136e+02  5.9268781824414191e+02  5.8455309206743436e+02  5.9243611772809606e+02  6.5656113527695800e+02  6.6473787236884891e+02  6.5681599485246602e+02  6.1466416566473492e+02  6.2280861105328370e+02  6.1492111366790357e+02  8.3248340530468298e+01  9.1012196841259723e+01  8.3494256176661835e+01  6.2281197109695448e+01  5.4541523290040217e+01  6.2055838664358646e+01  4.1309321851810734e+02  4.0502666516488352e+02  4.1279240941264277e+02  1.4215983987765702e+02  1.3436101672667422e+02  1.4193343411792910e+02  1.6328704633671123e+02  1.7110929497755984e+02  1.6353464162029255e+02  2.0352941505086579e+02  2.1138283552247552e+02  2.0377488106671203e+02  2.6325561759283596e+02  2.5530147993428315e+02  2.6297163695633230e+02  3.7191297385735874e+02  3.6394117183281554e+02  3.7167863089397548e+02  3.5153884484919269e+02  3.5375666189031199e+02  3.5688775271605948e+02  2.4241477904202844e+02  2.4488459645427392e+02  2.4798508653259847e+02  2.2409805806276191e+02  2.2167156575239997e+02  2.1859894426441153e+02  3.9236747382865116e+02  3.9467317021766723e+02  3.9779767390145963e+02  1.8362461840131957e+02  1.8128145947490799e+02  1.7822520819786294e+02  1.2178539657230745e+02  1.2417543116024464e+02  1.2724275252511168e+02  4.3800353300249249e+01  4.5302906710486468e+01  4.8346854502185700e+01  1.0358489956275000e+02  1.0118479964318107e+02  9.8150291295447005e+01  5.7173162631277899e+02  5.7408271492516565e+02  5.7725834891532622e+02  6.7797577571009253e+02  6.7544983982346071e+02  6.7224957623174362e+02  6.3583587830293970e+02  6.3339744137290177e+02  6.3021424970187729e+02  5.5591282991437686e+02  5.5915333866579147e+02  7.5807013637417560e+02  7.5082012445849875e+02  7.5452702368453322e+02  7.5803628677572260e+02  7.5161873626244130e+02  7.5449452084242216e+02  7.6502597815887759e+02  7.6154925605363644e+02  7.6505853546016999e+02  7.6159602703279870e+02  1.8671775840785212e+01  2.7268289377272122e+01  2.0659881686425134e+01  2.2645901885803728e+01  2.5276737110332707e+01  8.1095271334954839e+02  8.1099406129517638e+02  8.1642070225076748e+02  8.1103346967988614e+02  8.1638198856937856e+02  8.2181333292995487e+02  8.1095536357382218e+02  8.1099666242365925e+02  8.1642245100276205e+02  8.1638384626319726e+02  8.2181333292995487e+02  7.8895194667010162e+02  7.8048240801835902e+02  7.8411755320863472e+02  7.8897195721830121e+02  7.8051077879822697e+02  7.8415494692270738e+02  1.0216273586960149e+01  1.0252812815340304e+01  5.1437212611117200e+00  1.0288860245787774e+01  5.1078036143264898e+00  0.0000000000000000e+00  2.9885369407274845e+02  2.9382046963889218e+02  2.9986531848628459e+02  2.9281024388417597e+02  2.9784934633588199e+02  4.4912454561374477e+02  4.4402302376866766e+02  4.5014122858075132e+02  4.4300719748532623e+02  4.4811430153952438e+02  5.3634734285394359e+02  5.4150410371562816e+02  5.3533611769911840e+02  5.4251242131414108e+02  5.3735049693994290e+02  7.3306912556835675e+02  7.3831980599062808e+02  7.3631756511259437e+02  7.3107748586911271e+02  7.2907561993292461e+02  1.0092977271809813e+01  1.0191135342267184e+01  5.1444543306754227e+00  5.0451668811281074e+00  0.0000000000000000e+00  2.7689593897468342e+02  2.8235350545197872e+02  2.7878247596086101e+02  4.2684256153687591e+02  4.3237282603019707e+02  4.2873680174819287e+02  5.5868097942930046e+02  5.5317681374368181e+02  5.5682564773267529e+02  7.5081439121014341e+02  7.5806770380299508e+02  7.5806026282693813e+02  7.6503685689897793e+02  7.5805061298893008e+02  7.6505151848973480e+02  7.5162937076708749e+02  5.5525310464569043e+02  5.6260438871692975e+02  5.6194540780666694e+02  2.8500136935920449e+02  2.8638654764925388e+02  2.9243522952454396e+02  2.8640341334170353e+02  2.9383626809600167e+02  4.3415735980220569e+02  4.3602889051021270e+02  4.4215016793527059e+02  4.3651297037305324e+02  4.4450337571570196e+02  7.4122790067876997e+02  7.4239928659847703e+02  7.3515007295786074e+02  5.5054898771061596e+02  5.4955453624455720e+02  5.5624803976269436e+02  5.4194256277574709e+02  5.4293955930830259e+02  5.4911368533765256e+02  7.7076810175644209e+02  7.7140819580795755e+02  7.6441336049959943e+02  7.7139331725340674e+02  7.7758526603609869e+02  7.7695918835974510e+02  7.8314911994761007e+02  7.4321526085884011e+02  7.4964257226525217e+02  7.7759890055035714e+02  2.9964874919677754e+02  2.9373099510119420e+02  2.9975521261661896e+02  4.4992714087082356e+02  4.4439939020754605e+02  4.5003317383871610e+02  5.3558997154184215e+02  5.4207328738826698e+02  5.3546857303686147e+02  2.3785131475298644e+02  2.2868827281099021e+02  1.1722507873496365e+02  3.7847149120115922e+01  1.0812021690904945e+02  6.8275689844267788e+02  7.3644926692468755e+02  7.3037574507559498e+02  7.3166994053489611e+02  7.3843365990552843e+02  2.3330172106146782e+02  2.2869886041325671e+02  2.3329405947568054e+02  2.3785779105471045e+02  1.1268189754920739e+02  1.0813246842328019e+02  1.1267250586097120e+02  3.3027366209350298e+01  3.8414079693134312e+01  3.2460521513591672e+01  1.1723328621093083e+02  6.8755847403917801e+02  6.8276597324531451e+02  6.8755210543920816e+02  2.7245138119371950e+02  2.8095274041437887e+02  2.7872536913002739e+02  2.7467700842309472e+02  4.2238144609909665e+02  4.3050217991328577e+02  4.2826849264644204e+02  4.2461447876441503e+02  5.5461168190367619e+02  5.6031080900797190e+02  5.6749649993620608e+02  5.6683920497178735e+02  8.0217080205391335e+02  7.9286231871429788e+02  7.9947326060332125e+02  7.9677657572605324e+02  7.9556168430993102e+02  8.0217018524422519e+02  7.9286881331098311e+02  7.9947383319148332e+02  7.9556835491861364e+02  7.8605763651942891e+02  7.8604667254724234e+02  1.9080609792195162e+02  1.8486877588914115e+02  1.8848861293466425e+02  6.4331509849185386e+02  6.3713352742908774e+02  6.4090348118357861e+02  6.9230019357081551e+02  4.8800789823535320e+02  4.9735325822731261e+02  6.9230554069870561e+02  4.9266292110372211e+02  4.8800132814234490e+02  4.9267326866630219e+02  4.9734225511803089e+02  3.4179511759049524e+02  3.4833165586304136e+02  3.4666718862506127e+02  3.4345901447711708e+02  4.0324690812723526e+02  3.9641508538014301e+02  4.0389272935659773e+02  2.1304315840188639e+02  2.1242272624080442e+02  2.1975320927359940e+02  2.5352064854089721e+02  2.4678661202831393e+02  2.5416334338817165e+02  3.6220160730887170e+02  3.5539601818171246e+02  3.6285028615741072e+02  5.2851623076853414e+01  4.6247560116552826e+01  5.3481685164089953e+01  9.2650035953031619e+01  9.2036913877245027e+01  9.9283824464976774e+01  1.3265491381314357e+02  1.2600141498872718e+02  1.3329063329266467e+02  1.7276314451435218e+02  1.7214470439874995e+02  1.7944958731032386e+02  6.2453470035863722e+02  6.2388964688716362e+02  6.3149570505454699e+02  6.6646848391343497e+02  6.6582197928722348e+02  6.7345586586961372e+02  5.8280440954010021e+02  5.7586713075656087e+02  5.8346049197185323e+02  2.8043798621068737e+02  2.7416467402365015e+02  2.7587120293419565e+02  4.3007808182432063e+02  4.2419067582626508e+02  4.2599546939842509e+02  3.8127860507388590e+02  3.7685605653710013e+02  3.8180139277116047e+02  3.7633347922422632e+02  3.8075658986059938e+02  6.0318052831935404e+02  5.9818532718044651e+02  6.0367768267208703e+02  5.9768305797210951e+02  6.0268888275212748e+02  6.0417664410277314e+02  6.0916982190090096e+02  6.0967110167283977e+02  6.0467722673226911e+02  3.8918531059960594e+02  3.8390188323893102e+02  3.8708434081475616e+02  2.8182187880992831e+02  4.3243204296568376e+02  2.7835351222931941e+01  2.9606186232575419e+02  4.4630249584853084e+02  7.3492760836574882e+02  5.3916277967321025e+02  2.7823399105528563e+02  4.2835841418699175e+02  3.3466178233192829e+02  3.3628637565733192e+02  3.4017271505973093e+02  4.6216892488553435e+02  4.7017678794029666e+02  4.6277257832456792e+02  7.1865429458458584e+02  7.1046395019541251e+02  7.1804382917256873e+02  5.2308066856935864e+02  5.1510927614442926e+02  5.2254969534454176e+02  3.1188040977484434e+02  3.1970092262538702e+02  3.1239450665783068e+02  1.5272224679731352e+02  1.5801066395597698e+02  1.5273578799263854e+02  1.5799728966221693e+02  1.5270850302318780e+02  1.4744684894058537e+02  1.4743297265251218e+02  7.2763231175686116e+01  7.8011711053174210e+01  7.2776283643771393e+01  7.7998614967993944e+01  7.2750142571972646e+01  6.7527547645827482e+01  6.7514553089585192e+01  7.8996360351046349e+02  3.2139434968677716e+02  3.2082941807090884e+02  3.2817472788504284e+02  7.0860853766762546e+02  7.0159793595875442e+02  7.0920474447503648e+02  5.1339574833462177e+02  5.0650187935839222e+02  5.1397523437921609e+02  4.7196575641589254e+02  4.7139429906390097e+02  4.7883499806685313e+02  3.9013601573868812e+02  3.8596794103338550e+02  3.8544594609802084e+02  6.1193209956680664e+02  6.0780430902451735e+02  6.0730867727339057e+02  5.9542851754941842e+02  5.9955283743185657e+02  6.0005151097373709e+02  1.9392236237559680e+02  1.8721434802314900e+02  1.8877255610093562e+02  1.9236587484475208e+02  6.4655719073272576e+02  6.3957441657863671e+02  6.4119549382444211e+02  6.4493769974974202e+02  0.0000000000000000e+00  0.0000000000000000e+00  5.1442393723898645e+00  8.2181333292995487e+02  8.2181333292995487e+02  8.1642252708637068e+02  8.2181333292995487e+02  0.0000000000000000e+00  2.9699165157205164e+02  4.4722575359162983e+02  7.3423196146983742e+02  5.3834125995548447e+02  8.0656053124241419e+02  8.0659997685934900e+02  8.0656308158352340e+02  8.0660133170473057e+02  4.0243695102169788e+01  3.4066209039068646e+01  3.9974493224101415e+01  3.9726415868249006e+01  3.4344195288074282e+01  2.8436369469388861e+01  3.0576353433197693e+02  3.0587285317324609e+02  4.5604760556400197e+02  4.5615497990378043e+02  5.2933479132659227e+02  5.2920753013250749e+02  7.2515882279149650e+02  7.2386517951421774e+02  2.6955988180545796e+02  2.6785286957762031e+02  4.1954142334422664e+02  4.1773895069116548e+02  2.6379872973193052e+01  2.7427436166954205e+01  3.3043626115516453e+01  1.4441914170494627e+01  1.4481428605363252e+01  1.9716871449170696e+02  1.9872361035746485e+02  6.4993890764143964e+02  6.5155682939897997e+02  1.8021216461783677e+01  1.4055257661239466e+01  1.4154463778874888e+01  1.9520904571116665e+02  2.0157462232789601e+02  1.9964648594933703e+02  6.4789975149963959e+02  6.5452674463154096e+02  6.5251832580825373e+02  3.0898845952201816e+02  3.0442567481808021e+02  3.0341805485230384e+02  4.5957301712562963e+02  4.5485593232084261e+02  4.5384253057567855e+02  5.2581808957818396e+02  5.3057610604764272e+02  5.3158421508294043e+02  7.2175439971649985e+02  7.2541528381799230e+02  7.2740734117791976e+02  2.7144581674922046e+02  2.6514014953845015e+02  2.6699538150240500e+02  4.2147560414657806e+02  4.1502651648863122e+02  4.1693889899275655e+02  2.5832900325896709e+01  1.9230455451041831e+01  1.9784906148410400e+01  6.5251234051540735e+02  6.4523306031410527e+02  6.4225533078960405e+02  6.3795678990431225e+02  6.4953516562635787e+02  1.1270056314180044e+02  1.1631414636260529e+02  1.1994625472858219e+02  1.0906950287845152e+02  1.0545898680979393e+02  2.3991000545049110e+02  2.3294752587864463e+02  2.2964464950627695e+02  2.2599074315013013e+02  2.3660612395385758e+02  1.4611944195710254e+02  1.5271408731702715e+02  1.5602369713906788e+02  1.5931445429984902e+02  1.4942753870921683e+02  6.6208847734651457e+01  7.2754922444174184e+01  7.6039620213607620e+01  7.9306134712798467e+01  6.9492520081916126e+01  1.9964282046259561e+02  1.8979128966427066e+02  1.9678312274122098e+02  1.9265150931815066e+02  1.8566289649420884e+02  2.6538532486658460e+02  2.6892048459247513e+02  2.7113756935913801e+02  4.1564724933549763e+02  4.1901571706941644e+02  4.2124254889088672e+02  5.7043903279360347e+02  5.6619041615386652e+02  5.6456163454384762e+02  3.3366105778485837e+02  3.3772905727202783e+02  3.3938938945258303e+02  3.7530252621426825e+02  3.7855385424268081e+02  3.8065312696933449e+02  3.4388783257322848e+02  3.4550711886942810e+02  3.4922089671643749e+02  4.8547567407155060e+02  4.9636061438427140e+02  4.8906842064488131e+02  4.9276617130194506e+02  5.0005928396903676e+02  6.9490858521489963e+02  6.8742302308971318e+02  6.8374961980583089e+02  6.7994397477452287e+02  6.9123413966134967e+02  2.5540330222764140e+01  3.0734494323151150e+01  2.5902856207092174e+02  2.6091238656701915e+02  3.6770462427297724e+02  3.7387895139327725e+02  3.6967011351505693e+02  3.7583025923993574e+02  1.3804161179615176e+02  1.4407949485999470e+02  1.3995973636436767e+02  1.4597717051586071e+02  5.8839737220549125e+02  5.9470979381031611e+02  5.9040301188599528e+02  5.9669505635474673e+02  1.6740584513808682e+02  1.6133560711013337e+02  1.6545346928605844e+02  1.5940651060928028e+02  6.6086808016007387e+02  6.5883171070888852e+02  6.1895362818782326e+02  6.1263538961948404e+02  6.1692407329816979e+02  6.1063668987448978e+02  8.7335964453680674e+01  8.1311567002418030e+01  8.5397805089897176e+01  7.9397731460146389e+01  5.8194770085752531e+01  6.4187207915563690e+01  6.0099414757945247e+01  6.6070802092871091e+01  2.0766566227898397e+02  2.0570926498628600e+02  4.0881095331496772e+02  4.1072761301272436e+02  4.6451385633546010e+02  4.6020288162449702e+02  4.5826107405726742e+02  4.6649010967380502e+02  5.2086999543288368e+02  5.2516279422094976e+02  5.2721930277158788e+02  5.1881325169223669e+02  7.1622683494382079e+02  7.2066535731559861e+02  7.2263847563055128e+02  7.1422647175543284e