<?xml version="1.0"?>
<VTKFile type="UnstructuredGrid"  version="0.1"  >
<UnstructuredGrid>
<Piece  NumberOfPoints="2690" NumberOfCells="4864">
<Points>
<DataArray  type="Float64"  NumberOfComponents="3"  format="ascii">-5.068912021686399 22.01507895824491 0  -5.659831498479467 21.27771808002846 0  -5.067553483985824 21.51631271531581 0  -5.065945574246665 21.01515217050607 0  -5.661194675140891 21.77799526663794 0  -6.253472543607764 21.53847964932994 0  -9 21.99999999996945 0  -8.406937131790142 21.26565103603206 0  -9 21.49999999997139 0  -9 20.99999999997333 0  -8.407179082071025 21.76563348425087 0  -7.814130896329189 21.53122729816835 0  -9 32.9999999999446 0  -8.412230843913932 32.26560177960807 0  -9 32.49999999994358 0  -9 31.99999999994255 0  -8.41247253729396 32.76560644299508 0  -7.824716374093599 32.53117684915257 0  -5.104031993815205 33.01629681561101 0  -5.608389612155863 32.31248427891641 0  -5.102614974012999 32.51846336128661 0  -5.100901216428138 32.01576897221162 0  -5.609800511881321 32.81290262288212 0  -6.11556283871298 32.60716991896124 0  -5.172131707593532 54.01552844945826 0  -5.751248333187184 54.75230633736696 0  -5.749902532890288 54.252955863206 0  -6.327465032799773 54.48810293820591 0  -5.173714552287662 54.51668502826144 0  -5.17510978904421 55.01568811212854 0  -9 54.99999999998974 0  -8.492841430940963 54.29877306653756 0  -9 54.49999999998872 0  -9 53.99999999998769 0  -8.493054895811698 54.79870796346898 0  -7.985940653575366 54.59743701315168 0  -9 39.99999999995897 0  -8.416336223674103 40.74055182571391 0  -8.416094450067948 40.24055527781457 0  -7.832419930793227 40.48106516625239 0  -9 40.49999999996 0  -9 40.99999999996102 0  -5.129730893275035 41.01441054616411 0  -5.685622892869193 40.28333548135942 0  -5.128325637937336 40.51675324147003 0  -5.126745792607896 40.01622894304661 0  -5.68698798352882 40.78309125067241 0  -6.244284965494826 40.5491323652371 0  -9 55.99999999999179 0  -8.447792389303478 56.7461513521108 0  -8.447581494629084 56.24611017101271 0  -7.895383756152901 56.49221971590185 0  -9 56.49999999999282 0  -9 56.99999999999384 0  -5.178637126715947 56.01482587255512 0  -5.733038078557294 56.75820763162027 0  -5.731712359713809 56.25814399292198 0  -6.284531687933578 56.49958761202853 0  -5.180318168116729 56.51718446435014 0  -5.181709189774789 57.01573648223189 0  -7.490750014858664 43.00854016196823 0  -6.671991873263408 43.12151222465952 0  -7.260856894560598 43.3473267563238 0  -7.031088560896944 43.68612494485523 0  -6.901757587581093 42.78263196148602 0  -6.312549080247621 42.55672891846168 0  -6.657207197899162 49.01613146169087 0  -7.472001058969037 48.9022531528555 0  -6.885828577661294 48.67723132590944 0  -7.114592987096827 48.33828222815347 0  -7.243249630430041 49.24112152890751 0  -7.829061136336905 49.46622701224143 0  -6.651339878256391 46.0151500960853 0  -7.468176545801753 45.90161807517746 0  -6.880557139926509 45.67607154119807 0  -7.109908745790529 45.33707117228244 0  -7.238833713471573 46.24060682508377 0  -7.826109240882174 46.46600688465043 0  -6.575632993775653 7.015678856436511 0  -7.418806253033109 6.902036333436379 0  -6.812263487917286 6.676770287887942 0  -7.049028997098404 6.337865277013996 0  -7.182049636742749 7.240938735410563 0  -7.788249511049282 7.466187493315385 0  -7.47445246379413 30.00844382245385 0  -6.646845630719597 30.12129720178824 0  -7.242078501379039 30.34699837200905 0  -7.009833066711885 30.68550021910174 0  -6.879093705707464 29.78269214697766 0  -6.283512837351902 29.55702496442846 0  -6.570071026225962 4.014925693597683 0  -7.41546772759617 4.117909393133353 0  -6.808377697436932 4.350934171291112 0  -7.046572225738607 4.686893642403636 0  -7.177280774559627 3.781919688315257 0  -7.784677276044782 3.549011358186424 0  -6.581333753179673 10.01581240052146 0  -7.422786009294349 10.11850230462093 0  -6.818558211864664 10.35162331130603 0  -7.055665091826006 10.68743499847744 0  -7.185668612551187 9.782706284833477 0  -7.790226009766521 9.549581278161654 0  -6.587049814914923 13.01595372110687 0  -7.426243066777907 12.90225762976348 0  -6.822555096313766 12.67705034120028 0  -7.058194535402274 12.33815183600755 0  -7.190607488645083 13.24117900775201 0  -7.793953895672414 13.46636002927984 0  -6.592800316725751 16.01619780927914 0  -7.430001224421503 15.90232954555468 0  -6.827740796817274 15.67731248636779 0  -7.062818997931127 15.33838770845704 0  -7.194934581979148 16.2411960057727 0  -7.796845517490074 16.46628546564746 0  -6.598702744632774 19.01450741902636 0  -7.434128028217897 19.11748161839071 0  -6.83427691714633 19.35005691421094 0  -7.069712627247519 19.68569812985862 0  -7.198680371302614 18.78179314217987 0  -7.798892241980407 18.54903707299612 0  -6.614266934888928 27.01396563768581 0  -7.444279888074835 27.11714257073422 0  -6.848295094760546 27.34982169681816 0  -7.082199611185731 27.68569976067264 0  -7.210372461987368 26.78117828439686 0  -7.80669486473298 26.54851805731898 0  -8.280038373695067 19.09817474675446 0  -8.039520333861784 18.82358199513683 0  -8.399311723788227 18.27456080749651 0  -8.639856014819843 18.54915371383728 0  -9 17.99999999998495 0  -8.284708065498716 27.09800409161614 0  -8.045754552360979 26.82326300274541 0  -8.40321677187243 26.2742450284443 0  -8.642195514062138 26.54899916891761 0  -9 25.99999999995395 0  -8.278159021858421 15.91090478723895 0  -8.037448198082751 16.18860372125608 0  -8.398554400272129 16.73310865332111 0  -8.639238981398192 16.45542762344215 0  -9 16.99999999998883 0  -5.808480253550838 30.11235285193422 0  -6.045939206382459 29.8346716042463 0  -5.687589060609704 29.28961358248337 0  -5.450114596414215 29.56800626871086 0  -5.091067514148111 29.0150669462756 0  -8.276429081985853 12.91089828908268 0  -8.035138342564885 13.18862599546299 0  -8.397105381086241 13.73318660412775 0  -8.638371447040322 13.45545646867079 0  -9 13.99999999999401 0  -8.274823680748762 10.09865307132993 0  -8.032576793378482 9.824117786021224 0  -8.394983722523923 9.274788185113222 0  -8.637256667799738 9.549323541275106 0  -9 8.99999999999857 0  -8.271470183897893 4.098372400801853 0  -8.028120648875321 3.823704428689721 0  -8.392234728439753 3.274483803460251 0  -8.635598038191992 3.549154924108362 0  -9 2.999999999998668 0  -8.273011705570488 6.910787559171649 0  -8.030577716404347 7.188484535974833 0  -8.394252609851788 7.733098209317319 0  -8.636661328652552 7.455402974787076 0  -9 7.999999999999485 0  -8.295710494210473 45.91059480593299 0  -8.060856308740986 46.18828315050396 0  -8.413185221470382 46.7330311711095 0  -8.648013542186153 46.45534440126739 0  -9 46.99999999997333 0  -8.29746997233981 48.91086106760662 0  -8.063209997033001 49.18855266722655 0  -8.414665276616507 49.73307796933928 0  -8.648898465470978 49.45540842694711 0  -9 49.99999999997949 0  -5.842611369141101 43.11253807428474 0  -6.077521708709744 42.83462923497217 0  -5.722997423067438 42.28910844333483 0  -5.48807742307973 42.56781265371678 0  -5.132822923724312 42.01444929354103 0  -5.787743182749831 23.93495032907255 0  -6.032465595128249 24.20105482245609 0  -5.677789598612844 24.74466775993173 0  -6.277073493263043 24.46720989667094 0  -5.433155300355073 24.47927796725866 0  -5.078584998435472 25.01497594015748 0  -8.303929139081816 52.08789942578673 0  -8.065246648558116 51.82170244505223 0  -8.413087928666519 51.27781623960391 0  -7.82645390145078 51.55554827193512 0  -8.651801322445822 51.54401233351675 0  -9 50.99999999998153 0  -5.82482552005386 38.10210182046558 0  -6.06542813198342 37.83263551348524 0  -5.711736895497639 37.29239237492028 0  -6.306142793271506 37.56321798136969 0  -5.471116213029521 37.56271996140929 0  -5.116677238536089 37.01377743515893 0  -5.816499428999507 34.93480558119884 0  -6.05904761773208 35.20080171898809 0  -5.707576967774173 35.74422533972567 0  -6.301481614619104 35.4668458442207 0  -5.46510691457755 35.47905180246836 0  -5.113766607715077 36.01427954254044 0  -7.928525690663544 50.50718612086578 0  -7.877465629973267 51.03138638324122 0  -8.464377182426245 50.75355318933299 0  -6.199610127471787 36.51488684883427 0  -6.252893247052508 37.03895885035137 0  -5.6582161062676 36.76700014999446 0  -6.250524489587521 35.99076634768861 0  -5.656837157823406 36.26682888460683 0  -6.036780204245686 25.27633500668646 0  -6.156894646574905 24.87180430200624 0  -5.557793692876191 25.14841129989551 0  -8.047191480137743 25.75123390246961 0  -7.92690435739157 26.14987544416242 0  -8.523644040226106 25.8756194615305 0  -6.998215155071752 34.38690148081813 0  -6.649690713561474 34.92696097830002 0  -6.900123601403047 35.25002507135622 0  -7.248667742163597 34.71009103374767 0  -7.498984960352011 35.03325365787195 0  -7.138946968033006 52.63507086253298 0  -7.482537841928938 52.09539072935585 0  -7.235717817081185 51.77256077532368 0  -6.892142997544068 52.31228769686205 0  -6.645199072114799 51.98954770470927 0  -7.005243605960268 38.63500115423972 0  -6.655850857089217 38.09919675090076 0  -6.904499586519456 37.77318299405666 0  -7.253876748335244 38.30912098833444 0  -7.502644155617913 37.98320779282701 0  -6.980143930074639 23.38698190480725 0  -6.628453433622067 23.92714983442543 0  -6.881134590470734 24.25028261034475 0  -7.232846698755957 23.7102207306173 0  -7.485415455232486 24.03341723699483 0  -7.899142352330982 17.50706737015636 0  -7.848993943047303 18.02807484251898 0  -8.449683682786558 17.75349267280712 0  -7.848014650913288 16.98668466117794 0  -8.44945883096001 17.25355642862735 0  -7.891244498178799 8.507229877117839 0  -7.840715003069508 9.028407023339776 0  -8.445729876221511 8.753616528947887 0  -7.933481181188156 2.421878775658937 0  -7.859035930635739 2.985426019783375 0  -8.466842047504585 2.710960518123224 0  -7.839768211712525 7.986712638804278 0  -8.445512699810346 8.253609857151998 0  -7.878815228583422 49.98671551778062 0  -8.464147626375853 50.25361674221318 0  -6.124591701465407 41.60771695389373 0  -6.218607775339428 4
[...]
<PointData  Scalars="f_29"> 
<DataArray  type="Float64"  Name="f_29"  format="ascii">3.9709852476379984e+02  3.8342134371524833e+02  3.8780246666592876e+02  3.7852331317180062e+02  3.9266188649200893e+02  3.8825387522532600e+02  3.9697516514393789e+02  3.8330141737404176e+02  3.8767719153369347e+02  3.7839231770060371e+02  3.9254336340602367e+02  3.8818201954572163e+02  6.0168739005589350e+02  5.8774150560122746e+02  5.9220265840461332e+02  5.8273368954921568e+02  5.9716829187830263e+02  5.9271781428554573e+02  6.0176513525943369e+02  5.8849807379393894e+02  5.9232605959820023e+02  5.8291277837298185e+02  5.9790536078274499e+02  5.9406159022714257e+02  1.0038137991304394e+03  1.0183483587960900e+03  1.0085468349818329e+03  1.0131855211982640e+03  1.0136543206734642e+03  1.0235387740658363e+03  1.0233847094241995e+03  1.0096004724387577e+03  1.0135760556435138e+03  1.0037670726472103e+03  1.0193956230408262e+03  1.0154270994205245e+03  7.3390803061868223e+02  7.4810513785107241e+02  7.3854352720159659e+02  7.4310934775119904e+02  7.4352958343159537e+02  7.5313991985992175e+02  7.5325792038998839e+02  7.3923009665407346e+02  7.4366193246843977e+02  7.3405283957203790e+02  7.4880319076280136e+02  7.4434827095254718e+02  1.0429212827523418e+03  1.0575924632091744e+03  1.0477677583068446e+03  1.0525632361455339e+03  1.0527608766156418e+03  1.0626531362107842e+03  1.0430432410529054e+03  1.0576844797448548e+03  1.0478651015349105e+03  1.0526226849959985e+03  1.0528734525986511e+03  1.0627687514925622e+03  7.9135446238610564e+02  7.9344619086489126e+02  7.9781465701771606e+02  8.0428111646637331e+02  7.8699195821296917e+02  7.8263049111164776e+02  9.0669485522142429e+02  9.0457112001416090e+02  9.0016796839496567e+02  8.9364528215136033e+02  9.1110296946880760e+02  9.1550614301002634e+02  8.4889585736946697e+02  8.4677963875606952e+02  8.4240983239713478e+02  8.3592489576738421e+02  8.5327157591128162e+02  8.5764444034270969e+02  1.2449660051705503e+02  1.2252108258475118e+02  1.1845153863933868e+02  1.1240927798327397e+02  1.2857117548004285e+02  1.3264134729372341e+02  5.4535974919401338e+02  5.4740586103402268e+02  5.5167717790899360e+02  5.5800195677971783e+02  5.4109751102923565e+02  5.3683600302172954e+02  7.0959380156070864e+01  7.2856956193206230e+01  7.6956587536758221e+01  8.2955689732973639e+01  6.6864672631555621e+01  6.2770864977238034e+01  1.7835481906740580e+02  1.8026966002925761e+02  1.8442094102400472e+02  1.9048824454109698e+02  1.7420761864010373e+02  1.7006412254921693e+02  2.3250220325856597e+02  2.3050337024495241e+02  2.2638860473493691e+02  2.2027777258830250e+02  2.3662111317576827e+02  2.4073656860860629e+02  2.8694887983800459e+02  2.8494544691299717e+02  2.8079973605870634e+02  2.7465469857377934e+02  2.9109936312263994e+02  2.9524481924946940e+02  3.4175286802405122e+02  3.4371851438533491e+02  3.4793812855191049e+02  3.5412850548594309e+02  3.3754213546117631e+02  3.3332979267064849e+02  4.8946487466579566e+02  4.9145686177685371e+02  4.9573329691594995e+02  5.0200526632180237e+02  4.8519600459408201e+02  4.8092381870916137e+02  3.4342504733091766e+02  3.3837892935772112e+02  3.2836774086341353e+02  3.3339984244077431e+02  3.2343658930508337e+02  4.9116323608340036e+02  4.8604374738920700e+02  4.7588467720959909e+02  4.8099056085437104e+02  4.7086619800419277e+02  2.8516341106362103e+02  2.9020286983677585e+02  3.0013809581909499e+02  2.9509189071127088e+02  3.0498301597250992e+02  5.4713982301369356e+02  5.4199075341289233e+02  5.3181944750711716e+02  5.3692360895410400e+02  5.2683147825151934e+02  2.3071509913108605e+02  2.3572455770795813e+02  2.4559533143434930e+02  2.4059045134899219e+02  2.5043224578781110e+02  1.7997565905921192e+02  1.7502111229936997e+02  1.6518604797253656e+02  1.7012739189080014e+02  1.6034039520862805e+02  7.2570974285276975e+01  6.7671304557433388e+01  5.7943573279771662e+01  6.2840968394528431e+01  5.3165645882315310e+01  1.2272895150994739e+02  1.2768403769567438e+02  1.3744741135470127e+02  1.3248665578388974e+02  1.4220548434450450e+02  8.4701103424421524e+02  8.5232638552435253e+02  8.6280703185117216e+02  8.5749579407575607e+02  8.6794747473353232e+02  9.0480609466016324e+02  9.1015484010301202e+02  9.2070356896035651e+02  9.1534809716983648e+02  9.2585391432868914e+02  7.9317805999974712e+02  7.8790701917870933e+02  7.7749839264030663e+02  7.8272385543173743e+02  7.7240363411060230e+02  4.3232359636570902e+02  4.3727827057621187e+02  4.4731980089608510e+02  4.4223137782959816e+02  4.4233422506976024e+02  4.5239309140555719e+02  9.6644475046637251e+02  9.6125110532698272e+02  9.5072619138863797e+02  9.5605582189221104e+02  9.5590527295531035e+02  9.4542699416611265e+02  6.9765946340789685e+02  6.9259168322829692e+02  6.8237909346524646e+02  6.8752069253704963e+02  6.8739444271557034e+02  6.7727788038971494e+02  6.3773938973456848e+02  6.4279765331961778e+02  6.5304017538155006e+02  6.4785493750139347e+02  6.4794169749999980e+02  6.5818977917225504e+02  9.3569243880418935e+02  9.4587573539100811e+02  9.4052700754383659e+02  6.6770791557607947e+02  6.7761467957612990e+02  6.7246949263042302e+02  6.5777164676138875e+02  6.6297718339082223e+02  4.5722806565371280e+02  4.4972446724668879e+02  4.5484500804652936e+02  4.6614583934697600e+02  4.7353524278102128e+02  4.6848129036216085e+02  6.2755677499675642e+02  6.3769773097397763e+02  6.4381721622111831e+02  6.3366749440031731e+02  6.3978049380323830e+02  9.7700364494409018e+02  9.6652218464897987e+02  9.6021889095160748e+02  9.7069248339110391e+02  9.6438559184945473e+02  7.0789434083201934e+02  6.9769482614759283e+02  6.9153815384934376e+02  7.0172806049526412e+02  6.9556406264578027e+02  4.2233367366463420e+02  4.3227387777604247e+02  4.3826732961402780e+02  4.2831905074070312e+02  4.3430566639249946e+02  3.1425839872393789e+02  3.2379529174201957e+02  3.1881399370756878e+02  3.0474308663136952e+02  3.0965017742406377e+02  1.5132658569106391e+02  1.6069731322018407e+02  1.5579942342783622e+02  4.2752197289840424e+01  5.2763760204456474e+01  4.7931995059103386e+01  1.4197586802438866e+02  1.4679492947529269e+02  9.2559068966328448e+02  9.3080189634804401e+02  7.6454585867303138e+02  7.7358644455755859e+02  7.6845550800909632e+02  4.4663706102598877e+02  4.4443656960039755e+02  4.4046780670331867e+02  9.4884172787886234e+02  9.5244829390579332e+02  9.5661213061317619e+02  6.8048277950945157e+02  6.8400268852979866e+02  6.8801941367583458e+02  6.5488922082067313e+02  6.5137457761207679e+02  6.4733060270527892e+02  5.2187996012228712e+02  5.2935646971235849e+02  5.2433817548080651e+02  8.0498611443171410e+02  7.9379315914218921e+02  8.0463614146925954e+02  8.9293144076553949e+02  9.0421162480542034e+02  8.9328907134024018e+02  8.3520613954690748e+02  8.4641997135707607e+02  8.3556630305204465e+02  1.1173815044165055e+02  1.2218328398342666e+02  1.1207536412325868e+02  8.3553331212207269e+01  7.3157754161653827e+01  8.3256573655598146e+01  5.5883738601452353e+02  5.4781995150824957e+02  5.5842346056835208e+02  1.9108849852203141e+02  1.8057216586762033e+02  1.9079036311162014e+02  2.1959815138052011e+02  2.3016177298957635e+02  2.1993951861419725e+02  2.7397912537795690e+02  2.8460521376824522e+02  2.7431766599596853e+02  3.5489626662440963e+02  3.4410567088725037e+02  3.5451680120802195e+02  5.0263770063210416e+02  4.9177446486527612e+02  5.0232377698647872e+02  4.7489106227457938e+02  4.7790691364057488e+02  4.8217665014271756e+02  3.2664220647129491e+02  3.2998581584755993e+02  3.3419561560176601e+02  3.0182887716488585e+02  2.9853837760080251e+02  2.9438669009822138e+02  5.3054140302978237e+02  5.3369057482586379e+02  5.3794748874539243e+02  2.4708160979261658e+02  2.4390989647517475e+02  2.3978962870192808e+02  1.6363230464233476e+02  1.6684824345966376e+02  1.7099108967913500e+02  5.8745850050627077e+01  6.0758752917525165e+01  6.4851395434332744e+01  1.3911677814445750e+02  1.3588054345637363e+02  1.3180385003971648e+02  7.7616503883054713e+02  7.7939866113430514e+02  7.8375781612782157e+02  9.2249283366313114e+02  9.1900106600244533e+02  9.1459145234423443e+02  8.6437400565595271e+02  8.6100994022189866e+02  8.5663215971951502e+02  7.5444780627017951e+02  7.5889973144350245e+02  1.0332624009074298e+03  1.0232266970705404e+03  1.0283564051216940e+03  1.0331961871270196e+03  1.0243107814228474e+03  1.0282852528902074e+03  1.0428788107957282e+03  1.0380570138513754e+03  1.0429432083574638e+03  1.0381505473014711e+03  2.5025675271693618e+01  3.6556828417846063e+01  2.7694499349184390e+01  3.0359701211303765e+01  3.3882432504070998e+01  1.1065432187620979e+03  1.1066022709246497e+03  1.1141339970466834e+03  1.1066581531461713e+03  1.1140793307413969e+03  1.1216194513578432e+03  1.1065470518590027e+03  1.1066066373948345e+03  1.1141368428458429e+03  1.1140820649230648e+03  1.1216194513578432e+03  1.0760289025360451e+03  1.0642923068266045e+03  1.0693225907712476e+03  1.0760705553178470e+03  1.0643493755578609e+03  1.0693986987811988e+03  1.3688151343523778e+01  1.3740272134380493e+01  6.8931575361935593e+00  1.3790012767868941e+01  6.8433300120186802e+00  0.0000000000000000e+00  4.0323181167573148e+02  3.9639903587244504e+02  4.0461409152265503e+02  3.9501790787298017e+02  4.0185890885845305e+02  6.0805968933786130e+02  6.0108824207547536e+02  6.0945722907816901e+02  5.9969151239359303e+02  6.0667047826216242e+02  7.2755963774823863e+02  7.3464226014054543e+02  7.2617841059050329e+02  7.3601899198501405e+02  7.2892960449542466e+02  9.9865650410063677e+02  1.0059247482837588e+03  1.0031456472735093e+03  9.9589436600874865e+02  9.9311823692659209e+02  1.3524700083174473e+01  1.3658464209852314e+01  6.8942961953678319e+00  6.7596298646225179e+00  0.0000000000000000e+00  3.7343906953651970e+02  3.8084932718706801e+02  3.7600573079165292e+02  5.7759985778009354e+02  5.8515825741371066e+02  5.8018153209012075e+02  7.5822189781493978e+02  7.5066417455980707e+02  7.5566659328215837e+02  1.0232137422697435e+03  1.0332574025255949e+03  1.0332422637728548e+03  1.0428999777138943e+03  1.0332232276202967e+03  1.0429290631960112e+03  1.0243320203091221e+03  7.5353502716189894e+02  7.6363215451811584e+02  7.6272054622109545e+02  3.8443014483916994e+02  3.8630463867238791e+02  3.9452437126496704e+02  3.8634060849167298e+02  3.9643241618253796e+02  5.8760988965350475e+02  5.9016225152541233e+02  5.9853401495678304e+02  5.9083588114466181e+02  6.0175596503364920e+02  1.0099360848352918e+03  1.0115639650073516e+03  1.0015245290575226e+03  7.4706847625907892e+02  7.4570907700844339e+02  7.5489568096740481e+02  7.3525479016538407e+02  7.3661885262763451e+02  7.4509189273485276e+02  1.0508436407035360e+03  1.0517349382899354e+03  1.0420413386926757e+03  1.0517053403426985e+03  1.0602834134870238e+03  1.0594207273111397e+03  1.0679967947971295e+03  1.0126823692200924e+03  1.0215863827431149e+03  1.0603107239112858e+03  4.0433090528078378e+02  3.9629731423606859e+02  4.0447128169738903e+02  6.0917516443233330e+02  6.0162047007303659e+02  6.0931580171124199e+02  7.2653653146481952e+02  7.3544104889796540e+02  7.2636617688805131e+02  3.2045245919237539e+02  3.0803917866921233e+02  1.5748142891602714e+02  5.0750667357125408e+01  1.4521747904904416e+02  9.2908839015251442e+02  1.0033161407605398e+03  9.9491211062974344e+02  9.9669629978319779e+02  1.0060579260988848e+03  3.1429495208112832e+02  3.0806012572884151e+02  3.1427862879236091e+02  3.2046754560359034e+02  1.5136800197123125e+02  1.4524074297942886e+02  1.5134915568967452e+02  4.4288060578005862e+01  5.1517045321404289e+01  4.3522984577800841e+01  1.5749920456745681e+02  9.3572589804068696e+02  9.2910733573468030e+02  9.3571110023283916e+02  3.6739012053179169e+02  3.7894113444195153e+02  3.7590893175286396e+02  3.7041966907621486e+02  5.7151819766218068e+02  5.8260754960086274e+02  5.7956270944476228e+02  5.7456257166266903e+02  7.5264042991482381e+02  7.6046823775962139e+02  7.7035132476772924e+02  7.6944346208819604e+02  1.0943610108458097e+03  1.0814540606783282e+03  1.0906216328507710e+03  1.0868835711052682e+03  1.0851944220685534e+03  1.0943609913320652e+03  1.0814679681644866e+03  1.0906234177800993e+03  1.0852095855199648e+03  1.0720302150302830e+03  1.0720077466536889e+03  2.5677249029665921e+02  2.4874986445203859e+02  2.5363180897874636e+02  8.7466746716317050e+02  8.6615091117168731e+02  8.7133634753490639e+02  9.4226897448020213e+02  6.6128980712608404e+02  6.7409289808268090e+02  9.4228289842110917e+02  6.6766079276606467e+02  6.6127482662460227e+02  6.6768183034860431e+02  6.7407206684742289e+02  4.6162874750366552e+02  4.7051874401276126e+02  4.6826005100724626e+02  4.6388647242936298e+02  5.4539227211783987e+02  5.3606636836797907e+02  5.4627577915391521e+02  2.8683277009794421e+02  2.8599973765227918e+02  2.9591634174764505e+02  3.4167292718395623e+02  3.3254120636204465e+02  3.4255062437306435e+02  4.8938812555149326e+02  4.8011800108945152e+02  4.9027756189390664e+02  7.0870451485167280e+01  6.2004214294940979e+01  7.1722715235232215e+01  1.2436775900823162e+02  1.2354929087669136e+02  1.3329620956874095e+02  1.7825147148980616e+02  1.6928282740714880e+02  1.7911528910185245e+02  2.3237502333480302e+02  2.3154649846931366e+02  2.4140819754315169e+02  8.4877833316177203e+02  8.4789629505418600e+02  8.5836693179577730e+02  9.0658092339966424e+02  9.0569529139854080e+02  9.1622553839356112e+02  7.9138908782717044e+02  7.8184861211790053e+02  7.9229365645973917e+02  3.7822565511076220e+02  3.6970892491463405e+02  3.7201730464481369e+02  5.8204207449856153e+02  5.7399719746394669e+02  5.7646905215941888e+02  5.1540837197985684e+02  5.0938129353114226e+02  5.1612936381584382e+02  5.0866094585049063e+02  5.1468844885322073e+02  8.1942475248899268e+02  8.1254713187498101e+02  8.2009883711692078e+02  8.1186437009430335e+02  8.1876189755887049e+02  8.2077631333985505e+02  8.2765048624967847e+02  8.2833132916312979e+02  8.2145618460678372e+02  5.2620748496336023e+02  5.1900137596938623e+02  5.2333511561367959e+02  3.8009824314556369e+02  5.8526483028248867e+02  3.7321757691686805e+01  3.9942466724654093e+02  6.0418708763521590e+02  1.0012346704913892e+03  7.3141362287337006e+02  3.7521757113188318e+02  5.7970307687516015e+02  4.5192756605462432e+02  4.5413184186996131e+02  4.5942850736888693e+02  6.2591149917369535e+02  6.3686813787033145e+02  6.2673535943871093e+02  9.7869126441712831e+02  9.6736627432971090e+02  9.7785213856739836e+02  7.0936316703258046e+02  6.9842719196209407e+02  7.0863260137048474e+02  4.2094250955458199e+02  4.3157269389641567e+02  4.2163939067055321e+02  2.0534101991164081e+02  2.1248171923479075e+02  2.0536858175255816e+02  2.1245438755902131e+02  2.0531305836253961e+02  1.9822676678371886e+02  1.9819859314987704e+02  9.7642235479956227e+01  1.0470164546463793e+02  9.7667873819761013e+01  1.0467576539665886e+02  9.7616353443750427e+01  9.0608313376405050e+01  9.0582769118025922e+01  1.0774401480114113e+03  4.3387739889166625e+02  4.3311112092031647e+02  4.4309991642687964e+02  9.6478389717002040e+02  9.5509231271106796e+02  9.6561409001145000e+02  6.9607939578383207e+02  6.8662461416122710e+02  6.9687577389401974e+02  6.3931908322542427e+02  6.3853865581661046e+02  6.4872460617984450e+02  5.2748585128802438e+02  5.2180607714981500e+02  5.2108623203138870e+02  8.3147037426011286e+02  8.2578419759272560e+02  8.2511180494334042e+02  8.0873604088527054e+02  8.1441651426035435e+02  8.1509402356315491e+02  2.6100056709000813e+02  2.5192541145170620e+02  2.5403941671909246e+02  2.5888938153020132e+02  8.7914988017563576e+02  8.6951909877365733e+02  8.7176001431180032e+02  8.7691139142870702e+02  0.0000000000000000e+00  0.0000000000000000e+00  6.8944241929774170e+00  1.1216194513578432e+03  1.1216194513578432e+03  1.1141371491561169e+03  1.1216194513578432e+03  0.0000000000000000e+00  4.0072711387454615e+02  6.0548617931632009e+02  1.0002358439010179e+03  7.3031879893693497e+02  1.1004495470382815e+03  1.1005065419783261e+03  1.1004533629733796e+03  1.1005085773986145e+03  5.3982011191113955e+01  4.5698878687893952e+01  5.3627091819957840e+01  5.3298523141299043e+01  4.6066496424887767e+01  3.8136371289173226e+01  4.1263461601283939e+02  4.1277828838269795e+02  6.1754235962972928e+02  6.1768408530087083e+02  7.1794879156505965e+02  7.1776926103086942e+02  9.8768860335728482e+02  9.8590436439018094e+02  3.6345156545089827e+02  3.6114155037861326e+02  5.6764911912988021e+02  5.6518042507353096e+02  3.5370984598161961e+01  3.6784854844020423e+01  4.4319399372791985e+01  1.9353436271966142e+01  1.9409549231576655e+01  2.6537625129558091e+02  2.6748593515359056e+02  8.8379952037811790e+02  8.8603672674699669e+02  2.4157679829715075e+01  1.8838079401192878e+01  1.8972518419217714e+01  2.6271618597009979e+02  2.7132608624056468e+02  2.6870812504051747e+02  8.8097855361595430e+02  8.9011721373955891e+02  8.8733658016117033e+02  4.1699727286464031e+02  4.1080322996741069e+02  4.0942661464267650e+02  6.2234564371894874e+02  6.1589911115332666e+02  6.1450611847785262e+02  7.1310530405320924e+02  7.1963977785520967e+02  7.2101697254292696e+02  9.8299718321880300e+02  9.8805791928815995e+02  9.9081845393933611e+02  3.6600209025735433e+02  3.5744557705939286e+02  3.5995549089807258e+02  5.7029596971694332e+02  5.6148503468925355e+02  5.6410669651533863e+02  3.4624476252211274e+01  2.5771963978959562e+01  2.6511295720145473e+01  8.8736876321532407e+02  8.7733643002229371e+02  8.7322662424260648e+02  8.6730938939804082e+02  8.8325999872441753e+02  1.5140554310910741e+02  1.5626695536061825e+02  1.6116591651278199e+02  1.4650896843974365e+02  1.4165344185655638e+02  3.2325822556004385e+02  3.1382693382060432e+02  3.0934740484105447e+02  3.0440584274413095e+02  3.1877692023884055e+02  1.9645484655020908e+02  2.0535149857791052e+02  2.0981145654599933e+02  2.1425970531478109e+02  2.0091140986662930e+02  8.8851575114733706e+01  9.7649946294635370e+01  1.0206019618739576e+02  1.0645860641450108e+02  9.3259500782507672e+01  2.6874466210463055e+02  2.5542331214829213e+02  2.6487359938910447e+02  2.5929550089822811e+02  2.4985122491607007e+02  3.5780746814656527e+02  3.6260201869859958e+02  3.6561850445976347e+02  5.6230837755627761e+02  5.6691501016763709e+02  5.6995061218987462e+02  7.7437826202460587e+02  7.6854665044948649e+02  7.6630191423085500e+02  4.5054803302459476e+02  4.5608946144100946e+02  4.5834216629439607e+02  5.0728093829328054e+02  5.1170765399937630e+02  5.1457892894036092e+02  4.6449171382635893e+02  4.6668727678636645e+02  4.7174709107685470e+02  6.5780220096924552e+02  6.7272031203006327e+02  6.6273018322906682e+02  6.6778967656564146e+02  6.7778277090374445e+02  9.4589086127637972e+02  9.3555112017091506e+02  9.3047158007553355e+02  9.2522340424464323e+02  9.4080930041772490e+02  3.4245652402861040e+01  4.1216412679054294e+01  3.4915841301530651e+02  3.5170584201871867e+02  4.9689969864854936e+02  5.0530981339009122e+02  4.9957025291754388e+02  5.0796245856467584e+02  1.8553116154475939e+02  1.9366805737277431e+02  1.8810788691869939e+02  1.9621848702516516e+02  7.9908272269115889e+02  8.0777397870679772e+02  8.0183848216910451e+02  8.1050741722635269e+02  2.2515633149949966e+02  2.1695397719016560e+02  2.2250996128231586e+02  2.1433995196624613e+02  8.9886949556084949e+02  8.9605103261195438e+02  8.4110846050464329e+02  8.3240448990101572e+02  8.3830488406597533e+02  8.2964283438816108e+02  1.1723365257374698e+02  1.0912451531094847e+02  1.1461705284692509e+02  1.0654168410447467e+02  7.8061112640358445e+01  8.6105661220357106e+01  8.0610654445372717e+01  8.8627674003948556e+01  2.7957190007740968e+02  2.7691542101015892e+02  5.5298862167771824e+02  5.5560310594032796e+02  6.2911593249791815e+02  6.2322994172652341e+02  6.2057936408141506e+02  6.3182328079596130e+02  7.0632799431318813e+02  7.1222793301570323e+02  7.1505693145613907e+02  7.0350806297989664e+02  9.7532440484186543e+02  9.8146595471297314e+02  9.8418972434087834e+02  9.7256534104354034e