<?xml version="1.0"?>
<VTKFile type="UnstructuredGrid"  version="0.1"  >
<UnstructuredGrid>
<Piece  NumberOfPoints="2690" NumberOfCells="4864">
<Points>
<DataArray  type="Float64"  NumberOfComponents="3"  format="ascii">-5.107334479383465 22.02342903288097 0  -5.691486044030049 21.28612906041713 0  -5.105254480652412 21.52534335798699 0  -5.1026988757957 21.02351149005661 0  -5.693644479604753 21.78657234107424 0  -6.279848005028384 21.54593836982829 0  -9 21.99999999996945 0  -8.41255052044772 21.2673962035792 0  -9 21.49999999997139 0  -9 20.99999999997333 0  -8.412932719427493 21.76736922805483 0  -7.825508562648807 21.53467589553355 0  -9 32.9999999999446 0  -8.420875786502071 32.26731868053206 0  -9 32.49999999994358 0  -9 31.99999999994255 0  -8.42125700879785 32.76732650505633 0  -7.842154091755237 32.53459576233686 0  -5.162533285577536 33.02529368060347 0  -5.658303751932221 32.32139650363221 0  -5.160378653796547 32.52867221064188 0  -5.157596405757944 32.02447569382214 0  -5.660549688832804 32.82205273034719 0  -6.158453029102855 32.61516335426158 0  -5.270378974042776 54.02405756275481 0  -5.835897076042776 54.76041767504125 0  -5.833758765177091 54.26143144497962 0  -6.39672017907293 54.49529052553722 0  -5.27296693821409 54.52589138652746 0  -5.27510348794816 55.02424668522143 0  -9 54.99999999998974 0  -8.50592129392677 54.30023584874431 0  -9 54.49999999998872 0  -9 53.99999999998769 0  -8.506264468694143 54.80013190558752 0  -8.012258701824125 54.60029811277519 0  -9 39.99999999995897 0  -8.427354472653127 40.74223638503659 0  -8.426972920060242 40.24224249793969 0  -7.85431137793393 40.48441257742068 0  -9 40.49999999996 0  -9 40.99999999996102 0  -5.203073721832093 41.02230206491043 0  -5.747411671887929 40.29187216103151 0  -5.200930009122384 40.52597532731168 0  -5.198384501589416 40.02515038181527 0  -5.749569695877172 40.7914944561204 0  -6.296035299948084 40.55656495192287 0  -9 55.99999999999179 0  -8.462722650421354 56.74770364945201 0  -8.462384739452983 56.24763730894843 0  -7.925123018158234 56.4952752538554 0  -9 56.49999999999282 0  -9 56.99999999999384 0  -5.280765884900389 56.02293059041237 0  -5.821596616930771 56.76636007221746 0  -5.819508835202974 56.2662576470123 0  -6.357751622888814 56.50667593624798 0  -5.283514165422685 56.52666721953607 0  -5.285647113978438 57.02434071947622 0  -7.520928777574126 43.01327849797354 0  -6.718691035666648 43.12892178580518 0  -7.295916841707681 43.35287184821004 0  -7.071097131459998 43.69248138812095 0  -6.943498051974147 42.78918076376207 0  -6.365738513697015 42.56509605278372 0  -6.710899466672167 49.02512673172608 0  -7.506931091709082 48.90806902224947 0  -6.933892826028817 48.68535936713889 0  -7.157124517828742 48.34551283057183 0  -7.283725116862818 49.24778913252172 0  -7.856180139933425 49.47063000067612 0  -6.70166813011087 46.02359246087604 0  -7.500912186710645 45.90706925581752 0  -6.925616801888193 45.68353762840199 0  -7.14978136964048 45.34360493424584 0  -7.276760062968846 46.24698178702132 0  -7.851515495916037 46.47028380455732 0  -6.5827335303001 7.024379191647097 0  -7.423352772295156 6.907698614985563 0  -6.818329861521411 6.684597958787086 0  -7.054143580238206 6.344821679947318 0  -7.187551928485468 7.24746948240757 0  -7.79203607176689 7.470544313869565 0  -7.495223037763417 30.01313048025453 0  -6.679025982218856 30.12858579347104 0  -7.266304341334282 30.35235893721185 0  -7.037586931693747 30.69150319398752 0  -6.907742490207433 29.78927767521123 0  -6.319918460639497 29.56556024179498 0  -6.57414210058596 4.023198792266831 0  -7.41819574927541 4.123308584623177 0  -6.812326920779155 4.358470272791672 0  -7.050348157450699 4.693666855549906 0  -7.180185786803228 3.788066669304689 0  -7.786517374994355 3.553084127728563 0  -6.591593744868857 10.02457816103111 0  -7.429535520193884 10.12423138948661 0  -6.828110490604606 10.35954343672064 0  -7.064451708929186 10.69451072363758 0  -7.193175295946835 9.78929003490571 0  -7.795106835753864 9.553970490631093 0  -6.60047951416824 13.02480915114061 0  -7.434907856975948 12.90804448260165 0  -6.834323452802211 12.68503606520369 0  -7.068383389726019 12.34526990194875 0  -7.200850078298079 13.24784490758826 0  -7.800899004746423 13.47081393468141 0  -6.609438903004063 16.0251873500496 0  -7.440771409392037 15.90815785557117 0  -6.842402610688705 15.68544321146511 0  -7.075590602706257 15.34563700135948 0  -7.2076050961859 16.24787317660956 0  -7.805419447498652 16.47070036269275 0  -6.618777603743187 19.02256607369348 0  -7.447299288926333 19.12265152728767 0  -6.852753145821366 19.35711832269828 0  -7.086503200243723 19.69181394841053 0  -7.213526909829906 18.7878804275066 0  -7.808654816169644 18.55313075340078 0  -6.643263489836817 27.02172630522577 0  -7.463272914727284 27.12212710121058 0  -6.874786914963645 27.35675710913801 0  -7.106121677420575 27.69182276734391 0  -7.231939267450256 26.78692591378189 0  -7.820949321430852 26.55232390321705 0  -8.28608705487428 19.10054775557772 0  -8.047458533078855 18.82680202376712 0  -8.404113707439524 18.27663131352129 0  -8.642783774737383 18.55037755795991 0  -9 17.99999999998495 0  -8.293436644083428 27.10028352835107 0  -8.057275790276323 26.82630681876619 0  -8.410270159574139 26.27613988669719 0  -8.646470042370851 26.55013718078001 0  -9 25.99999999995395 0  -8.283115401099824 15.91357261301225 0  -8.044182165991476 16.19214985683643 0  -8.402916579404145 16.73529761404159 0  -8.641808263471898 16.45674805633858 0  -9 16.99999999998883 0  -5.852155106176207 30.12260335885121 0  -6.085947319308835 29.84405853722098 0  -5.731563160640471 29.30007695714954 0  -5.49777855627042 29.57973120867146 0  -5.142056226676084 29.0234521368547 0  -8.280414366061674 12.91356118467875 0  -8.040573670789668 13.19218266779876 0  -8.400648450779698 13.73541722163145 0  -8.640451568084112 13.45679198527842 0  -9 13.99999999999401 0  -8.277919845720641 10.10128849363831 0  -8.03659353394441 9.827630388612008 0  -8.397351919606562 9.276981534394013 0  -8.638719470815834 9.550639640534772 0  -9 8.99999999999857 0  -8.272724163098275 4.100851531605804 0  -8.029692355290894 3.826987196840397 0  -8.393098282957464 3.276508145556807 0  -8.636151934574491 3.550377286994563 0  -9 2.999999999998668 0  -8.275105429197342 6.913388145069128 0  -8.0334880868288 7.191961603248694 0  -8.396216103389234 7.735278978052095 0  -8.63779465223098 7.45670835284746 0  -9 7.999999999999485 0  -8.310764480935912 45.91309794340877 0  -8.081056077684419 46.19166298616695 0  -8.425961510965216 46.73518573680206 0  -8.655629722283358 46.45662325239799 0  -9 46.99999999997333 0  -8.313535150257945 48.91351856411405 0  -8.084768670563339 49.19208807743385 0  -8.428304689794118 49.73525956700452 0  -8.657028128558757 49.4567244712197 0  -9 49.99999999997949 0  -5.906008896776705 43.12289366804538 0  -6.135782151290372 42.84399378619613 0  -5.787448663474279 42.29928820859915 0  -5.557696070523642 42.57943084189024 0  -5.207948716722055 42.02247429143898 0  -5.822284179530716 23.94530125249684 0  -6.064739947938531 24.2104930504026 0  -5.714780196936976 24.75506231040829 0  -6.307013979025249 24.47576575676044 0  -5.472493298186013 24.49098053533458 0  -5.122424684636136 25.02322513431141 0  -8.321035030403266 52.09024660216817 0  -8.08808065442873 51.82490688038331 0  -8.42725049883876 51.27988389691599 0  -7.854948741320551 51.55963430704571 0  -8.660254211198433 51.54522231041078 0  -9 50.99999999998153 0  -5.880666383152968 38.11234365607069 0  -6.116638376986235 37.84192081156111 0  -5.768229075743599 37.30258844118605 0  -6.352784897180356 37.57156264583082 0  -5.532263357425988 37.5743615967024 0  -5.182416826017683 37.02142326216917 0  -5.867517795770892 34.94507780257049 0  -6.106560558979896 35.21009995899222 0  -5.761650653387514 35.75437091009391 0  -6.345422137717824 35.4751968539921 0  -5.522761610818189 35.49063151982322 0  -5.177780384916004 36.02208784691892 0  -7.953934299178137 50.51109287410208 0  -7.904401453467161 51.03539385263585 0  -8.477150110264681 50.75548410045273 0  -6.246629834505226 36.52312478883956 0  -6.299732724817797 37.04719897871631 0  -5.714718207937588 36.77640296417331 0  -6.295988464168326 35.99899756011714 0  -5.712519645659254 36.27611574512952 0  -6.070449657098719 25.28541168706269 0  -6.188684582189665 24.8806350913461 0  -5.596715967423552 25.15861227374701 0  -8.058222526242236 25.75424266956496 0  -7.939525242410372 26.15328236402233 0  -8.529186273658889 25.87712536516683 0  -7.029737924822396 34.39301058319636 0  -6.687331907917818 34.93424545327414 0  -6.934086795204871 35.25648052196573 0  -7.276526046886216 34.71544465913813 0  -7.523100147344463 35.03783622856898 0  -7.185246473809403 52.64116115921055 0  -7.519833583311343 52.10052640288687 0  -7.278762453667074 51.77865568540224 0  -6.944200070398374 52.31936611590253 0  -6.702927369004617 51.99763719111262 0  -7.040831916773137 38.64105016388311 0  -6.697057649843031 38.10644344661745 0  -6.940996141409822 37.77961421045703 0  -7.284748726466927 38.31443379070528 0  -7.52887665760036 37.98776346245786 0  -7.001313973115854 23.39313563611973 0  -6.653920995280582 23.93453914748958 0  -6.904205817076784 24.25688267963884 0  -7.251636514262706 23.71564648402277 0  -7.501748056587427 24.03809142648017 0  -7.907530860747005 17.51099244507357 0  -7.858054357090888 18.0320971138756 0  -8.453943297969095 17.75543273056809 0  -7.85650711786537 16.99085921390732 0  -8.453587925138212 17.2555316393434 0  -7.895215365297553 8.511239977134114 0  -7.845130319777005 9.032607541063737 0  -8.447773929365011 8.755622374720845 0  -7.93468340736741 2.425364206913216 0  -7.860534859284425 2.989194754647762 0  -8.467497237447603 2.71271464989851 0  -7.843659246415509 7.990898288028951 0  -8.447436522043827 8.25561210836549 0  -7.905091684984645 49.99087539294521 0  -8.476782433843981 50.25558417776815 0  -6.180119859084103 41.61579572920782 0  -6.272992791831124 42.090553270705
[...]
<PointData  Scalars="f_29"> 
<DataArray  type="Float64"  Name="f_29"  format="ascii">1.6630827486888694e+02  1.6051736423303421e+02  1.6237017586763639e+02  1.5844100758145845e+02  1.6443201973712198e+02  1.6255890606162606e+02  1.6622096145027083e+02  1.6043396765979548e+02  1.6228168445605019e+02  1.5834822516259078e+02  1.6435007831364442e+02  1.6250897957301063e+02  2.5349465375993245e+02  2.4752530889504504e+02  2.4943095845800698e+02  2.4537449449291751e+02  2.5156512271774454e+02  2.4966392921113697e+02  2.5355948805036371e+02  2.4787594647803766e+02  2.4951420826536850e+02  2.4548356062863886e+02  2.5190807038302128e+02  2.5025707453271500e+02  4.2773524389643859e+02  4.3409631260289331e+02  4.2980675502288841e+02  4.3183272815632728e+02  4.3204157462317340e+02  4.3636842441257966e+02  4.3627287560517078e+02  4.3024121559389795e+02  4.3197741262249014e+02  4.2768264305936856e+02  4.3453121134151064e+02  4.3279813956908993e+02  3.1038886168195961e+02  3.1652589458115119e+02  3.1239613775722353e+02  3.1437433228924505e+02  3.1454380881128867e+02  3.1869460850043475e+02  3.1877881677697269e+02  3.1271860753812450e+02  3.1463208659000139e+02  3.1048070314431129e+02  3.1685598323881658e+02  3.1492650809907042e+02  4.4483559231169289e+02  4.5127240017065054e+02  4.4696486942623358e+02  4.4907293800976214e+02  4.4914961154868041e+02  4.5348605905019662e+02  4.4491500050051729e+02  4.5133364712029970e+02  4.4702916959050742e+02  4.4911233764794434e+02  4.4922446509239569e+02  4.5356303832988749e+02  3.3523753277738325e+02  3.3614842963850941e+02  3.3803687416020233e+02  3.4084018402420963e+02  3.3335331469530792e+02  3.3146872224568835e+02  3.8531788612310817e+02  3.8438521774306912e+02  3.8247391364358947e+02  3.7963279593776156e+02  3.8723258835230990e+02  3.8914471786235856e+02  3.6018909048833427e+02  3.5926338692834082e+02  3.5737280523506331e+02  3.5455755498580100e+02  3.6208382922488471e+02  3.6397657278977965e+02  5.1689965369165954e+01  5.0858506233107171e+01  4.9168746000452316e+01  4.6649492361278142e+01  5.3383055964910561e+01  5.5073708467471960e+01  2.2939413122544494e+02  2.3027389061454309e+02  2.3209734042559271e+02  2.3480496170496440e+02  2.2757637176490698e+02  2.2575905755456932e+02  2.9415246925964162e+01  3.0196631791787944e+01  3.1905054724305398e+01  3.4395953342062448e+01  2.7710322890516192e+01  2.6005466579539231e+01  7.4180519464871693e+01  7.4971981531867016e+01  7.6715999767979454e+01  7.9252212568411494e+01  7.2439253233588545e+01  7.0699763720066017e+01  9.6863353901032511e+01  9.6015582311440141e+01  9.4296020911681467e+01  9.1730634043802510e+01  9.8585754093893726e+01  1.0030614938047857e+02  1.1974665124681786e+02  1.1889494184959609e+02  1.1715575820459928e+02  1.1456765934575667e+02  1.2148913953202226e+02  1.2322900733296473e+02  1.4286495589985097e+02  1.4368995105502066e+02  1.4547919170350997e+02  1.4809642331235872e+02  1.4108145867723587e+02  1.3929633005802182e+02  2.0554343733142846e+02  2.0638670869167780e+02  2.0821413080507151e+02  2.1088685421686478e+02  2.0372120672399180e+02  2.0189673632858936e+02  1.4355754038624474e+02  1.4142747409936138e+02  1.3719388881658702e+02  1.3931673645402540e+02  1.3510438410321339e+02  2.0625369016935525e+02  2.0407522648957041e+02  1.9974499598508754e+02  2.0191654609007631e+02  1.9760196273056516e+02  1.1897706736509883e+02  1.2110243629875730e+02  1.2528378126260196e+02  1.2315445571662218e+02  1.2731917326099223e+02  2.3016118407524729e+02  2.2796163681560654e+02  2.2362160627549270e+02  2.2579365320127931e+02  2.2149741760546092e+02  9.6093903500053642e+01  9.8199392569352042e+01  1.0233840340325601e+02  1.0023383824036456e+02  1.0436186297559955e+02  7.4838312719530862e+01  7.2769512601424978e+01  6.8653304894649537e+01  7.0715549416349660e+01  6.6620920375205884e+01  3.0069051042248486e+01  2.8037396849874767e+01  2.3995806311604937e+01  2.6025499935193668e+01  2.2007587112759452e+01  5.0935479747403299e+01  5.3004018588429119e+01  5.7070832400378571e+01  5.4998850349476875e+01  5.9048484260840354e+01  3.5935453763082540e+02  3.6166491938970694e+02  3.6621202637218749e+02  3.6390224189257196e+02  3.6843845411391004e+02  3.8447833558167099e+02  3.8681091435507489e+02  3.9140282669445395e+02  3.8906633265542041e+02  3.9364244946681669e+02  3.3603349698939149e+02  3.3375244458204673e+02  3.2925219812976883e+02  3.3150588930939648e+02  3.2705271931624196e+02  1.8123839039780555e+02  1.8334471892651035e+02  1.8762032534432930e+02  1.8544974238044989e+02  1.8549155541517325e+02  1.8978516539835238e+02  4.1136510067948467e+02  4.0909897512692925e+02  4.0449823422779900e+02  4.0683240886867225e+02  4.0675702761800085e+02  4.0217659184793081e+02  2.9476875865052580e+02  2.9258620720439359e+02  2.8819334324039465e+02  2.9040221690227554e+02  2.9034401860709829e+02  2.8600270011044717e+02  2.6898685345198055e+02  2.7116181491273505e+02  2.7557230089237078e+02  2.7333589274475116e+02  2.7337140993719248e+02  2.7779596577428913e+02  3.9794375223345924e+02  4.0238801077114084e+02  4.0004732269585543e+02  2.8188233578926719e+02  2.8614109309823272e+02  2.8393652928820910e+02  2.7760405496672206e+02  2.7985093714728879e+02  1.9183341019815902e+02  1.8863877423516783e+02  1.9082570237443579e+02  1.9560411333786200e+02  1.9875015515752327e+02  1.9659300115555993e+02  2.6461035377552196e+02  2.6896715334842492e+02  2.7159566732004822e+02  2.6723296013552886e+02  2.6985708999546972e+02  4.1599079068561451e+02  4.1140743689708557e+02  4.0865624280559848e+02  4.1323474697376156e+02  4.1048150671033500e+02  2.9917801513666427e+02  2.9478243291472768e+02  2.9212867403575484e+02  2.9651804830379859e+02  2.9385962428004296e+02  1.7699385308076009e+02  1.8121557450000961e+02  1.8376039498999680e+02  1.7953303476248686e+02  1.8207334574227997e+02  1.3124382294393433e+02  1.3526976365757298e+02  1.3316068333934848e+02  1.2723205125168018e+02  1.2929399895658958e+02  6.2869560663997717e+01  6.6784783449338860e+01  6.4731546810918161e+01  1.7700021724374754e+01  2.1852789602824014e+01  1.9842564401139104e+01  5.8967500185023191e+01  6.0971192136742040e+01  3.9353983742887652e+02  3.9580503569619248e+02  3.2365390976181044e+02  3.2755921366222998e+02  3.2534789194859030e+02  1.8731722784769167e+02  1.8638488569460557e+02  1.8469309854307815e+02  4.0369036654179831e+02  4.0526121650400188e+02  4.0708491550522518e+02  2.8736833184133030e+02  2.8888611931279962e+02  2.9061127540835878e+02  2.7635634436410231e+02  2.7484756560339088e+02  2.7310391415935732e+02  2.1937914344741910e+02  2.2256740455078079e+02  2.2043352208114254e+02  3.4115218577859173e+02  3.3630040804907941e+02  3.4099764003956307e+02  3.7931400269581349e+02  3.8422466651389749e+02  3.7947416804195245e+02  3.5423718688481694e+02  3.5910321215703993e+02  3.5439814992593671e+02  4.6361611895698914e+01  5.0713497002187204e+01  4.6506760372650596e+01  3.4636264163291301e+01  3.0317722248291151e+01  3.4517421027938724e+01  2.3516796107627590e+02  2.3045262503778210e+02  2.3498840821652715e+02  7.9493413162306197e+01  7.5093688053081991e+01  7.9374027645374298e+01  9.1436314358045720e+01  9.5867568007048249e+01  9.1584637097783883e+01  1.1427481025431516e+02  1.1874747975945890e+02  1.1442203292943505e+02  1.4841355552098989e+02  1.4385009991644992e+02  1.4825736738106002e+02  2.1114931026876781e+02  2.0651869292094580e+02  2.1101951233096693e+02  1.9933473972047685e+02  2.0061555566488212e+02  2.0243785042805376e+02  1.3647863904601405e+02  1.3788750337611339e+02  1.3967035295687950e+02  1.2601178676228945e+02  1.2462120915241492e+02  1.2287787937225026e+02  2.2306621764299186e+02  2.2441397161530304e+02  2.2622801963833945e+02  1.0297909836598198e+02  1.0164301660072752e+02  9.9919844700341500e+01  6.8019481927299765e+01  6.9359914190877632e+01  7.1098141187483023e+01  2.4341761737247445e+01  2.5174121351011586e+01  2.6877468328190073e+01  5.7782900029790774e+01  5.6429073387651911e+01  5.4734742669373269e+01  3.2866889883180806e+02  3.3006957486114203e+02  3.3195153259995334e+02  3.9219732910631643e+02  3.9067186212503702e+02  3.8875614336330000e+02  3.6690690158456346e+02  3.6544209450515882e+02  3.6354628703207391e+02  3.1929087124912274e+02  3.2121572070989873e+02  4.4062436772020214e+02  4.3622983417944891e+02  4.3847514299438200e+02  4.4058119685481222e+02  4.3668903378741913e+02  4.3842482548762206e+02  4.4482633186707358e+02  4.4270806862165733e+02  4.4486869938993902e+02  4.4277016339046224e+02  1.0356607816056909e+01  1.5135600462616813e+01  1.1464177289724899e+01  1.2569617687371910e+01  1.4025018179998293e+01  4.7277073055899422e+02  4.7279759371587915e+02  4.7610991033053347e+02  4.7282277747714824e+02  4.7608540873847539e+02  4.7940258113439739e+02  4.7277158624952278e+02  4.7279961756431328e+02  4.7611125675205278e+02  4.7608618219457520e+02  4.7940258113439739e+02  4.5936478268086762e+02  4.5421623881436409e+02  4.5641767549011502e+02  4.5939417975518711e+02  4.5425461680810184e+02  4.5646965031134516e+02  5.6612604168983793e+00  5.6851377434962460e+00  2.8519574859638994e+00  5.7067877563395299e+00  2.8300972513623570e+00  0.0000000000000000e+00  1.6888848773590038e+02  1.6599514188587048e+02  1.6948042455175693e+02  1.6540316350964716e+02  1.6830023510736044e+02  2.5624167987709944e+02  2.5325522433267412e+02  2.5684637176160317e+02  2.5265063829388743e+02  2.5564028143252929e+02  3.0766036156696765e+02  3.1072095716949207e+02  3.0706918061781971e+02  3.1130984232174774e+02  3.0824650332760984e+02  4.2547240639458948e+02  4.2865483446289716e+02  4.2743256755915792e+02  4.2425915684124271e+02  4.2303991550101944e+02  5.5950209280374317e+00  5.6519647840894534e+00  2.8525561285937240e+00  2.7955981259269440e+00  0.0000000000000000e+00  1.5628443892631876e+02  1.5942340426771656e+02  1.5737550997261658e+02  2.4318535054096239e+02  2.4642407333048902e+02  2.4428617808363714e+02  3.2090161056078290e+02  3.1763710363274635e+02  3.1979223833053277e+02  4.3622052544528958e+02  4.4062092442462102e+02  4.4061077013576249e+02  4.4484008212342542e+02  4.4059830308151311e+02  4.4485926384512663e+02  4.3670307379223470e+02  3.1889159102505687e+02  3.2325517413863133e+02  3.2285650557678252e+02  1.6092940925299348e+02  1.6171875384125300e+02  1.6520565540583618e+02  1.6174372655872384e+02  1.6601814336119858e+02  2.4748391800604628e+02  2.4857349422078141e+02  2.5216479506695771e+02  2.4887099957109265e+02  2.5354958416466076e+02  4.3040105213885818e+02  4.3111848514349282e+02  4.2671908777792419e+02  3.1609314135794102e+02  3.1551039888883008e+02  3.1947533120114736e+02  3.1099321845912999e+02  3.1157879949556644e+02  3.1523517425033191e+02  4.4832605516679553e+02  4.4872020929350907e+02  4.4446733610568111e+02  4.4870060299148133e+02  4.5246194455258325e+02  4.5208712978772985e+02  4.5584818138257282e+02  4.3160016437280689e+02  4.3550413098912071e+02  4.5248021447312800e+02  1.6936871909308363e+02  1.6596685283353597e+02  1.6942494541373387e+02  2.5673342653386237e+02  2.5349648493887031e+02  2.5679041598086872e+02  3.0723083656292619e+02  3.1107855799341752e+02  3.0715462149611915e+02  1.3386195349871414e+02  1.2862547677411806e+02  6.5445049151043733e+01  2.1020944410558052e+01  6.0324148059897851e+01  3.9506838140243292e+02  4.2749862218401455e+02  4.2382112958339172e+02  4.2459700933073520e+02  4.2869544677510186e+02  1.3126884793170532e+02  1.2863928822705299e+02  1.3125751464545601e+02  1.3387300141727184e+02  6.2896832240630843e+01  6.0338899152982890e+01  6.2884392833799339e+01  1.8344321774867563e+01  2.1342924918482836e+01  1.8023784961643340e+01  6.5457403671950146e+01  3.9796801085524004e+02  3.9508147441500529e+02  3.9795704913441551e+02  1.5371161071533703e+02  1.5861042366370336e+02  1.5732012236684241e+02  1.5500057508112627e+02  2.4059104888097522e+02  2.4533554280367755e+02  2.4403683430565820e+02  2.4188984513111151e+02  3.1849512717306720e+02  3.2187796487683590e+02  3.2615877953546277e+02  3.2576278014971842e+02  4.6741676283748683e+02  4.6174937913613581e+02  4.6577564314313418e+02  4.6413522860171008e+02  4.6338983719015505e+02  4.6741811267506711e+02  4.6175962452807761e+02  4.6577755262164203e+02  4.6340183833014845e+02  4.5761997286278080e+02  4.5760439993474614e+02  1.0703870172657017e+02  1.0366992750513981e+02  1.0571306188684829e+02  3.7136989581466571e+02  3.6767047005589399e+02  3.6991657189334887e+02  4.0081759970225403e+02  2.7911442696378373e+02  2.8462282793762103e+02  4.0082853225343649e+02  2.8185077510836805e+02  2.7910353254584993e+02  2.8186489384625821e+02  2.8460964566806075e+02  1.9369293879740567e+02  1.9746956055300575e+02  1.9651380450446027e+02  1.9464812878130391e+02  2.2941617145442916e+02  2.2542861064968457e+02  2.2979537113639924e+02  1.1967108967618661e+02  1.1932522335108894e+02  1.2349773122793030e+02  1.4280891365367981e+02  1.3895006070788460e+02  1.4318438226853453e+02  2.0548978731861041e+02  2.0154125790441952e+02  2.0587297023937271e+02  2.9354609721042362e+01  2.5674479196173721e+01  2.9713072541503490e+01  5.1609674423926428e+01  5.1273385892027179e+01  5.5332267524872563e+01  7.4107943147167177e+01  7.0358295406094882e+01  7.4474192096045186e+01  9.6781121213342658e+01  9.6438476106240685e+01  1.0057280882048539e+02  3.6011312187796358e+02  3.5973488539022372e+02  3.6427681418985838e+02  3.8524263253102106e+02  3.8486171232438460e+02  3.8944495283879837e+02  3.3526017973710077e+02  3.3112840037964037e+02  3.3565365120604588e+02  1.5829500103565093e+02  1.5468824443377059e+02  1.5565951156675453e+02  2.4510372478986699e+02  2.4165789296091734e+02  2.4272081886721574e+02  2.1659902391799386e+02  2.1402952405538107e+02  2.1691267872345335e+02  2.1371638680322602e+02  2.1628583975752875e+02  3.4741131345486320e+02  3.4442695044182994e+02  3.4769608738733029e+02  3.4413724235639461e+02  3.4713384062815504e+02  3.4798300514435169e+02  3.5096539616233724e+02  3.5125395541645264e+02  3.4827110646197650e+02  2.2122049938857947e+02  2.1814400891726783e+02  2.1998921484683035e+02  1.5908342597682326e+02  2.4648867068703819e+02  1.5455780621626747e+01  1.6726409580593207e+02  2.5457124080187751e+02  4.2660503941269434e+02  3.0931587400577877e+02  1.5700922821942586e+02  2.4410977559080376e+02  1.8957209700611622e+02  1.9050453863313345e+02  1.9276297893947600e+02  2.6390836537358456e+02  2.6861211692586738e+02  2.6426048807823065e+02  4.1672198630677684e+02  4.1177255132672298e+02  4.1635894685313042e+02  2.9981589301901778e+02  2.9509935260548588e+02  2.9949911184690046e+02  1.7640766577764236e+02  1.8091917705697955e+02  1.7670199924457597e+02  8.5463352016016358e+01  8.8457839825072924e+01  8.5481764044612589e+01  8.8439585685174549e+01  8.5444699255335735e+01  8.2486520861096281e+01  8.2467702906982154e+01  4.0496380017109779e+01  4.3436289074157415e+01  4.0513018402660506e+01  4.3419472804569423e+01  4.0479515070621673e+01  3.7573207586756915e+01  3.7556585632891696e+01  4.5999094747454529e+02  1.8189947414403153e+02  1.8157550274840199e+02  1.8581856142424328e+02  4.1063159437114797e+02  4.0639780712138702e+02  4.1099867397410736e+02  2.9408942608345228e+02  2.9001383804086464e+02  2.9443386689671246e+02  2.6966678098154591e+02  2.6933285892626606e+02  2.7371008816186162e+02  2.2175287643143827e+02  2.1933174803362252e+02  2.1901864976658078e+02  3.5263510210896976e+02  3.5016575640141883e+02  3.4988132057800726e+02  3.4276165159300615e+02  3.4522807926722197e+02  3.4551531046909065e+02  1.0882709717660666e+02  1.0500799744231841e+02  1.0590212468682761e+02  1.0793455336745618e+02  3.7332878355903455e+02  3.6913756625460007e+02  3.7011667523407857e+02  3.7235092268197792e+02  0.0000000000000000e+00  0.0000000000000000e+00  2.8529064069118122e+00  4.7940258113439739e+02  4.7940258113439739e+02  4.7611164110957424e+02  4.7940258113439739e+02  0.0000000000000000e+00  1.6784542873000854e+02  2.5515522000073366e+02  4.2614177326899664e+02  3.0886769870915242e+02  4.7009236997399188e+02  4.7011872780061339e+02  4.7009338780588746e+02  4.7011941425103481e+02  2.2372457134914168e+01  1.8942193572402903e+01  2.2229900182187212e+01  2.2097507993731558e+01  1.9090375258997074e+01  1.5799479595093977e+01  1.7288678833011627e+02  1.7294403595883261e+02  2.6032017893918709e+02  2.6037712143438807e+02  3.0352271018713776e+02  3.0344157399482248e+02  4.2065673893643725e+02  4.1988027554371786e+02  1.5203397074091561e+02  1.5106127146201254e+02  2.3894251174504021e+02  2.3788090435457391e+02  1.4648050229992030e+01  1.5240649915008964e+01  1.8364599516865969e+01  8.0070027661901850e+00  8.0325570980858334e+00  1.1065634056351658e+02  1.1154864511776043e+02  3.7534126101512379e+02  3.7631912092212377e+02  1.0000331026420191e+01  7.7959565158147992e+00  7.8526083411804617e+00  1.0953039256872196e+02  1.1315217664413581e+02  1.1204384192048320e+02  3.7410735908207715e+02  3.7808318518565750e+02  3.7686564897600942e+02  1.7472278895248274e+02  1.7209995715244207e+02  1.7151063707349266e+02  2.6236718882226035e+02  2.5960526487187133e+02  2.5900259743884749e+02  3.0141962042775776e+02  3.0424299298210235e+02  3.0483258384696393e+02  4.1861814741266795e+02  4.2082898814173728e+02  4.2203996993846380e+02  1.5310672487053711e+02  1.4948630631021351e+02  1.5054235005684160e+02  2.4007897124979297e+02  2.3630647688252006e+02  2.3743520506423496e+02  1.4329600757231459e+01  1.0663596945322208e+01  1.0966718909714404e+01  3.7690948798321801e+02  3.7254946964459435e+02  3.7075875672987485e+02  3.6819237588102396e+02  3.7511954566087525e+02  6.2921712656428348e+01  6.4947091653112793e+01  6.6997343400354083e+01  6.0873017478090816e+01  5.8851582504243353e+01  1.3505797765836928e+02  1.3108041778064091e+02  1.2918692442077398e+02  1.2710884370457021e+02  1.3316357333110997e+02  8.1758830302867324e+01  8.5483636097658220e+01  8.7347304979849284e+01  8.9216177401384584e+01  8.3619965082834383e+01  3.6854402508074898e+01  4.0513527413145979e+01  4.2344343328963738e+01  4.4179498789734524e+01  3.8683443596740446e+01  1.1208963599300054e+02  1.0648891422489069e+02  1.1045900574474634e+02  1.0812048563028283e+02  1.0415407509534909e+02  1.4966118590810964e+02  1.5168800047477086e+02  1.5297032337511752e+02  2.3664030736478421e+02  2.3861631796566206e+02  2.3991109847769491e+02  3.2788846665391759e+02  3.2537108994688930e+02  3.2439554645036645e+02  1.8897209528695942e+02  1.9133279582449453e+02  1.9228571481064631e+02  2.1314640937292830e+02  2.1503056614475497e+02  2.1626223922668393e+02  1.9492173466964991e+02  1.9584939323007512e+02  1.9800550457680228e+02  2.7760017733740642e+02  2.8402294871407958e+02  2.7972482869078169e+02  2.8189691768636612e+02  2.8619757845200030e+02  4.0241172368266172e+02  3.9790109056909461e+02  3.9568090768013792e+02  3.9339776994167380e+02  4.0019036978200330e+02  1.4182599161846904e+01  1.7074166809930826e+01  1.4598442766091335e+02  1.4705566960638572e+02  2.0870099655769690e+02  2.1228319363697321e+02  2.0983355933075680e+02  2.1340895813142316e+02  7.7165340550096033e+01  8.0565916665079044e+01  7.8236100122518479e+01  8.1626362930242195e+01  3.3859344001776748e+02  3.4236504226645883e+02  3.3978549978424832e+02  3.4355076518548094e+02  9.3764867034897279e+01  9.0320703504030092e+01  9.2647634194783905e+01  8.9217974568661219e+01  3.8189639874923688e+02  3.8066268161281806e+02  3.5679566470437885e+02  3.5301540780848057e+02  3.5557243439096987e+02  3.5181031840247988e+02  4.8648479317009638e+01  4.5266871208731580e+01  4.7551674223137113e+01  4.4185170773418818e+01  3.2352073171790956e+01  3.5690786600111103e+01  3.3404744350100138e+01  3.6732318629260021e+01  1.1662608787587270e+02  1.1550109577482915e+02  2.3266486589962466e+02  2.3378162546558863e+02  2.6528133541374132e+02  2.6276340596641978e+02  2.6163019155299736e+02  2.6644589304984606e+02  2.9850557352417479e+02  3.0105767302404757e+02  3.0228274873050458e+02  2.9729035029422016e+02  4.1524283495422873e+02  4.1793020982278364e+02  4.1911690632875212e+02  4.1404219520423658e