<?xml version="1.0"?>
<VTKFile type="UnstructuredGrid"  version="0.1"  >
<UnstructuredGrid>
<Piece  NumberOfPoints="2690" NumberOfCells="4864">
<Points>
<DataArray  type="Float64"  NumberOfComponents="3"  format="ascii">-5.022111088046328 22.00484593233946 0  -5.621310999409963 21.26739670793678 0  -5.021666655970249 21.50524476599685 0  -5.021163698314813 21.00488082889528 0  -5.621739792631488 21.76748272099068 0  -6.22139089063927 21.52933529522849 0  -9 21.99999999996945 0  -8.400102877463596 21.26351303082509 0  -9 21.49999999997139 0  -9 20.99999999997333 0  -8.400179187306886 21.76350732277587 0  -7.800286168947844 21.52700211405659 0  -9 32.9999999999446 0  -8.401781610530147 32.26349727358069 0  -9 32.49999999994358 0  -9 31.99999999994255 0  -8.401857984521197 32.76349863686836 0  -7.803643506880229 32.52698599040406 0  -5.033256660042788 33.00524265176063 0  -5.548042495242402 32.30154592568782 0  -5.032789542678837 32.50593707822359 0  -5.032268151045112 32.00507750256205 0  -5.548483449094731 32.80167908101168 0  -6.063732984809533 32.59736478641525 0  -5.0546688300325 54.00501463234983 0  -5.65014256757919 54.74227748718346 0  -5.649721292121851 54.24248517715873 0  -6.244730537380509 54.47922544342961 0  -5.055146557616196 54.50537070104592 0  -5.055602135052989 55.00506273617217 0  -9 54.99999999998974 0  -8.477208190566166 54.29697045867481 0  -9 54.49999999998872 0  -9 53.99999999998769 0  -8.477274053055204 54.7969502018093 0  -7.954495526601749 54.59390680987253 0  -9 39.99999999995897 0  -8.403078037262732 40.73848210287685 0  -8.403001680239251 40.23848304977311 0  -7.80607608342425 40.47695194642849 0  -9 40.49999999996 0  -9 40.99999999996102 0  -5.041376098086345 41.00464978355379 0  -5.611244273143136 40.2728191126052 0  -5.040914306577979 40.50539674413731 0  -5.040428624532901 40.00523693712079 0  -5.611674393322242 40.77273995877137 0  -6.18200837871563 40.53998391345024 0  -9 55.99999999999179 0  -8.429981465571151 56.74423614727608 0  -8.429916178767316 56.24422346648629 0  -7.859900786977886 56.48844636609439 0  -9 56.49999999999282 0  -9 56.99999999999384 0  -5.056693123448147 56.00479575056968 0  -5.627381334629661 56.74812786323666 0  -5.626961824084059 56.24810802405011 0  -6.197173412803864 56.49082466891366 0  -5.057200852158478 56.50553108324823 0  -5.057654461427532 57.00507682379671 0  -7.454465568176074 43.00274256244155 0  -6.615859984469643 43.11245327512926 0  -7.218704166170831 43.34054456104938 0  -6.982983265941995 43.67835073566624 0  -6.851582039820296 42.7746216283364 0  -6.248627184546084 42.54650091461409 0  -6.592668557442479 49.0051679156545 0  -7.430009997822601 48.8951682308147 0  -6.828030842093692 48.66732917722251 0  -7.063435476686391 48.32947547401582 0  -7.194608182029307 49.23299636752157 0  -7.79647649810671 49.46086195624267 0  -6.590809216118756 46.00485610602804 0  -7.428798570194702 45.89496796709893 0  -6.826356210928038 45.66696228319819 0  -7.061944804258292 45.32909342848901 0  -7.193213060427758 46.23283361109767 0  -7.795546055190365 46.46079269792352 0  -6.566769337732327 7.005036247496069 0  -7.413121591128127 6.89510850697727 0  -6.804670133921865 6.667194529946057 0  -7.042612502916741 6.329354111365602 0  -7.175182342141752 7.23294842974877 0  -7.783524923163951 7.460856572889188 0  -7.449315484086873 30.00271172471898 0  -6.607914272432916 30.1123853962103 0  -7.212768624714468 30.34044024738783 0  -6.976262709794076 30.67815239508119 0  -6.844422221195096 29.77464090888538 0  -6.239457059801963 29.54659613886117 0  -6.564967018755477 4.004796790207767 0  -7.412039778516833 4.111300030508328 0  -6.803411189616867 4.341706982348883 0  -7.041816585383416 4.678601121033066 0  -7.173636909552977 3.774395754722614 0  -7.782367487966354 3.544026666635207 0  -6.568603505201267 10.00508129968181 0  -7.414402637422572 10.11149015444396 0  -6.806696005372058 10.3419278103717 0  -7.044748875110002 10.67877437049047 0  -7.17634700357064 9.774648220188892 0  -7.784161101820865 9.544209595772024 0  -6.57044176283691 13.00512372755522 0  -7.415514862275105 12.8951790311873 0  -6.807981406913684 12.66728367046135 0  -7.045562381753623 12.32944536226327 0  -7.177936098156285 13.23302501453752 0  -7.785360765963395 13.46091155382135 0  -6.572286435405712 16.00520218288304 0  -7.416718264709096 15.89520161922084 0  -6.809644900220318 15.66736777384648 0  -7.047045199720928 15.3295208875598 0  -7.179320743319061 16.23302987289484 0  -7.786284441938101 16.46088694952676 0  -6.574143757522203 19.00465789604143 0  -7.41801734428901 19.11116055060936 0  -6.811699611368303 19.34142216454232 0  -7.049213433995178 19.67821566025127 0  -7.180500600056608 18.77435235192065 0  -7.786929219588787 18.54403316431059 0  -6.579077205058035 27.00448320560915 0  -7.421234543139496 27.11105088708278 0  -6.816147812788886 27.34134531696989 0  -7.053177832868067 27.67821434995156 0  -7.184202202708555 26.77415448327589 0  -7.789397685454501 26.54386643837461 0  -8.272638204942858 19.09527330443748 0  -8.029800898683394 18.8196455688866 0  -8.393422569770701 18.27203009745589 0  -8.636268130409416 18.54765781849301 0  -9 17.99999999998495 0  -8.274117577648358 27.09521817426474 0  -8.031774630049705 26.81954289604843 0  -8.394657171316561 26.27192880162777 0  -8.637008277517166 26.5476082026031 0  -9 25.99999999995395 0  -8.27204630660993 15.9076424304252 0  -8.029148281954839 16.18426744699007 0  -8.393183987404758 16.73043242971895 0  -8.636073773007935 16.4538131964773 0  -9 16.99999999998883 0  -5.755673486063603 30.09982432885147 0  -5.997546935562335 29.82320375312771 0  -5.634381063825648 29.27685410393469 0  -5.392494777182624 29.55370189283836 0  -5.029168955787777 29.00483730309936 0  -8.271492867565014 12.90764072043537 0  -8.028409821014213 13.18427511471175 0  -8.392721863942839 13.73045788481625 0  -8.635796785385654 13.45382270800372 0  -9 13.99999999999401 0  -8.270976289606073 10.09542767572428 0  -8.027585545318669 9.819818844078359 0  -8.392039101581654 9.272103984575317 0  -8.6354380487626 9.547712867712171 0  -9 8.99999999999857 0  -8.269893402267405 4.09533770802632 0  -8.026145875421932 3.819686252684764 0  -8.391150048426256 3.272006285072083 0  -8.634901898537196 3.547658775204456 0  -9 2.999999999998668 0  -8.270392897576874 6.90760542482243 0  -8.026942007924729 7.184230031842991 0  -8.391803759946303 7.730429748717459 0  -8.635246396102794 7.453805671071866 0  -9 7.999999999999485 0  -8.277600634219915 45.90754068489152 0  -8.036556286527127 46.18416110628765 0  -8.397814796778974 46.73040505259539 0  -8.638850852939784 46.45378512330108 0  -9 46.99999999997333 0  -8.278157522882958 48.90762430002896 0  -8.037299773661154 49.18424580735092 0  -8.398280246668575 49.73041960776442 0  -8.639129758433251 49.45380514450986 0  -9 49.99999999997949 0  -5.766454225287747 43.09988208235467 0  -6.007522069668603 42.82318872565323 0  -5.645560976676044 42.27669089721948 0  -5.404481294412515 42.55363753511568 0  -5.042355063580833 42.0046431829356 0  -5.745851714949151 23.92230344296161 0  -5.993321894910963 24.18951710218318 0  -5.632939953472807 24.73193306032234 0  -6.24075608090319 24.45674634468193 0  -5.385490310899817 24.46494924416564 0  -5.025208856009619 25.00482420317231 0  -8.28343064814826 52.08503112718427 0  -8.037875236455951 51.81778857506228 0  -8.396100127866724 51.27529303430006 0  -7.792285882615165 51.55055963174222 0  -8.641665154706804 51.54253528416781 0  -9 50.99999999998153 0  -5.757596034292923 38.08958908045638 0  -6.003760732859594 37.82129667973894 0  -5.643690391141175 37.27996366643174 0  -6.249961310577903 37.55302276816882 0  -5.397511571469896 37.54852929003591 0  -5.037269310785668 37.00442729501726 0  -5.754968963398833 34.92225570516948 0  -6.001748016337409 35.18943494161501 0  -5.642380392474373 35.73179122193203 0  -6.248491124891461 35.45662937157028 0  -5.395618810319745 35.46487534759154 0  -5.036359377656985 36.00461248406137 0  -7.898024402038044 50.50242207007397 0  -7.845147961982011 51.02649691182534 0  -8.449047655230942 50.75119830763499 0  -6.142925116862046 36.50478649986127 0  -6.196448736607738 37.02887428591875 0  -5.59009933144754 36.75546661622054 0  -6.195702267797923 35.98067782763864 0  -5.589669511269522 36.25541761706843 0  -5.995934610817989 25.26522290373104 0  -6.118334320774022 24.86099570065565 0  -5.51058158304239 25.1359077715743 0  -8.033804710030466 25.74755532141294 0  -7.911588801774426 26.14571073251413 0  -8.516917903056115 25.87377843180096 0  -6.960171152512883 34.37943421025813 0  -6.604281184532637 34.91805834997149 0  -6.859156762116115 35.24213129063297 0  -7.21505245103989 34.70354651706952 0  -7.469891090592167 35.02765031691759 0  -7.08350627119543 52.62761929266361 0  -7.43784653087789 52.08911495769218 0  -7.18411604577395 51.76511685171145 0  -6.829781002989961 52.30363552886352 0  -6.576012924446725 51.97966588462477 0  -6.96239001062213 38.62759905019229 0  -6.606225378620755 38.09033861080708 0  -6.860537739634823 37.76532021041023 0  -7.216696785086525 38.30262230908048 0  -7.471046126101605 37.97763557839933 0  -6.954441240060965 23.37946056609685 0  -6.597549111042181 23.91811962661766 0  -6.853139161488286 24.24221418989923 0  -7.210037223071108 23.70358860885009 0  -7.465590758418237 24.02770307743463 0  -7.888833609133308 17.50226920241265 0  -7.837874429532439 18.02315836129519 0  -8.444452235157883 17.75112136596832 0  -7.837565753681585 16.98158072399798 0  -8.444381387911058 17.25114188616176 0  -7.886303074074689 8.502322785491151 0  -7.835225400643186 9.02326664236047 0  -8.443186424112032 8.751161923007892 0  -7.931971772332546 2.41761426658455 0  -7.857155258446538 2.98081430101631 0  -8.466019069933104 2.708813996040071 0  -7.834920679829605 7.981590952128604 0  -8.443116519176177 8.25115975490403 0  -7.847257352841815 49.98164487952866 0  -8.44897652247645 50.25121841863902 0  -6.057818991217491 41.59780054512808 0  -6.153233739641487 42.072170840
[...]
<PointData  Scalars="f_29"> 
<DataArray  type="Float64"  Name="f_29"  format="ascii">2.5666147304447884e+02  2.4792824351443730e+02  2.5072927184514728e+02  2.4480484391685485e+02  2.5382395632687283e+02  2.5102158187340288e+02  2.5664508835506609e+02  2.4790896004064260e+02  2.5071181688056870e+02  2.4478672619174739e+02  2.5380428510132384e+02  2.5101004792048775e+02  3.8629747461954037e+02  3.7750410783061449e+02  3.8032356020443910e+02  3.7435904896685207e+02  3.8343863307625662e+02  3.8062633976178915e+02  3.8628967255099934e+02  3.7793375291839277e+02  3.8034764925796765e+02  3.7441511893560124e+02  3.8385459789267270e+02  3.8144163836744269e+02  6.3610344908005925e+02  6.4502482649824594e+02  6.3900931339374631e+02  6.4186377799965760e+02  6.4214463227191129e+02  6.4820986523484771e+02  6.4816521275735079e+02  6.3970361543495005e+02  6.4215004282486507e+02  6.3613312866764818e+02  6.4570941081109811e+02  6.4326740386724828e+02  4.6912544236200301e+02  4.7797267904156433e+02  4.7200894206748490e+02  4.7484569768018025e+02  4.7512904495577965e+02  4.8112409170125693e+02  4.8113700150406834e+02  4.7239074207105540e+02  4.7515590601982228e+02  4.6916409171372482e+02  4.7835662236955756e+02  4.7558800684917281e+02  6.6013222901888548e+02  6.6910931250502165e+02  6.6309307137367546e+02  6.6601981041882550e+02  6.6615785211779223e+02  6.7221786699415634e+02  6.6016114135702685e+02  6.6912924151876825e+02  6.6311465401553050e+02  6.6603301599108534e+02  6.6618282564334322e+02  6.7224289096180951e+02  5.0489112459281137e+02  5.0618300271166322e+02  5.0890448383335087e+02  5.1291954482108974e+02  5.0217031293947355e+02  4.9945146796652364e+02  5.7636154483704979e+02  5.7506403741147858e+02  5.7233495859476989e+02  5.6830929563266704e+02  5.7909165403431837e+02  5.8181918209996729e+02  5.4060516105454326e+02  5.3930569550916630e+02  5.3658602943027483e+02  5.3256676258510572e+02  5.4332569193475547e+02  5.4604547826621774e+02  8.1252830052862450e+01  7.9983855899708232e+01  7.7327582744508973e+01  7.3402966008360863e+01  8.3910281019754763e+01  8.6565652445932258e+01  3.5077023395788132e+02  3.5205331959794160e+02  3.5475417372214730e+02  3.5874057357678919e+02  3.4807189851161871e+02  3.4537362585290384e+02  4.6395737688854538e+01  4.7645433574133385e+01  5.0310154665903269e+01  5.4225067834604801e+01  4.3731543314705277e+01  4.1068788664681151e+01  1.1617860961813466e+02  1.1743460725282129e+02  1.2010820191469179e+02  1.2403791865470356e+02  1.1350575931955593e+02  1.1083527792523867e+02  1.5116363800902431e+02  1.4989089439193987e+02  1.4722443063934315e+02  1.4328585590989761e+02  1.5383090962153338e+02  1.5649657192090996e+02  1.8621211564994346e+02  1.8493990622689455e+02  1.8226527550251109e+02  1.7831936333469727e+02  1.8888769326879492e+02  1.9156060718904078e+02  2.2134366630554757e+02  2.2261172972849647e+02  2.2530045451151773e+02  2.2925908503981594e+02  2.1865738676168135e+02  2.1597177622635826e+02  3.1540826584885673e+02  3.1668001310673765e+02  3.1938091460085718e+02  3.2335487009480948e+02  3.1270862950540317e+02  3.1000848873627001e+02  2.2243906682933169e+02  2.1920657232877534e+02  2.1280764067183867e+02  2.1603320937156855e+02  2.0966410494159175e+02  3.1650780665326340e+02  3.1325842673803112e+02  3.0682337647844531e+02  3.1006596857333227e+02  3.0365195825835730e+02  1.8509707730071611e+02  1.8832814634913285e+02  1.9471363584877201e+02  1.9148009492152596e+02  1.9783285756963886e+02  3.5188422740469031e+02  3.4863005126824794e+02  3.4219366954531461e+02  3.4543439861487474e+02  3.3903003874999621e+02  1.5004632565748074e+02  1.5327076136431012e+02  1.5964141158609399e+02  1.5642183204715190e+02  1.6277108359557917e+02  1.1726332086288457e+02  1.1405018046047707e+02  1.0768922518150077e+02  1.1089551957643143e+02  1.0456388583870422e+02  4.7474526633121023e+01  4.4271961867949145e+01  3.7928084271442501e+01  4.1131091857502042e+01  3.4818878056949174e+01  8.0136424688942327e+01  8.3350482911923734e+01  8.9699475272748984e+01  8.6483525120792791e+01  9.2800121385455867e+01  5.3946527479200392e+02  5.4275460277062120e+02  5.4925467152924887e+02  5.4597018490541416e+02  5.5244867998778329e+02  5.7522490603563335e+02  5.7852133930580089e+02  5.8503668105785505e+02  5.8173775566739630e+02  5.8822060318190279e+02  5.0601526423247873e+02  5.0273467366791112e+02  4.9624999856206489e+02  4.9951649864445125e+02  4.9306944008063135e+02  2.7912189125729617e+02  2.8227045430748461e+02  2.8863998052873512e+02  2.8541900669503332e+02  2.8548867709510648e+02  2.9184848950771163e+02  6.1320200256409635e+02  6.1000321956402479e+02  6.0353584906862272e+02  6.0680294535857684e+02  6.0672720568531099e+02  6.0028943937844110e+02  4.4645833733018895e+02  4.4328608481018557e+02  4.3688442927774219e+02  4.4011222374830373e+02  4.4004087922604691e+02  4.3367998846915179e+02  4.0891729526729335e+02  4.1208889847003024e+02  4.1850025849192065e+02  4.1526056229564898e+02  4.1531930830728254e+02  4.2171014619501847e+02  5.9426726469443315e+02  6.0053749064192073e+02  5.9725502808810029e+02  4.2769042055067189e+02  4.3390366514097889e+02  4.3066333991231062e+02  4.2147102054559542e+02  4.2471929524494811e+02  2.9493399793707169e+02  2.9017432662496651e+02  2.9341045548386813e+02  3.0063611357062717e+02  3.0532337749291770e+02  3.0212697616559365e+02  4.0252905955259496e+02  4.0889397854025856e+02  4.1273573870486200e+02  4.0636911150074508e+02  4.1020960890997583e+02  6.1967308895242502e+02  6.1323479827052302e+02  6.0935412348819921e+02  6.1579003116309093e+02  6.1190792519263675e+02  4.5286006410395078e+02  4.4648225053990524e+02  4.4263302223945016e+02  4.4900854896055461e+02  4.4515749837915496e+02  2.7276961677899720e+02  2.7909314581933108e+02  2.8290710712939779e+02  2.7658231141948795e+02  2.8039470105419485e+02  2.0375918586821061e+02  2.0986771187455184e+02  2.0668824089233618e+02  1.9765571263520809e+02  2.0081534696962666e+02  9.8694479474894450e+01  1.0476741847964885e+02  1.0160549552461224e+02  2.7992025102848505e+01  3.4533490560166136e+01  3.1387494235817289e+01  9.2626064325489196e+01  9.5766414334330690e+01  5.8803899628484317e+02  5.9126318469672879e+02  4.8817823948734366e+02  4.9381599692454836e+02  4.9060702752193612e+02  2.8822790168487251e+02  2.8682424133435239e+02  2.8431019397281392e+02  6.0235000552823135e+02  6.0457609731196885e+02  6.0712856879109381e+02  4.3571276979463505e+02  4.3791229818199213e+02  4.4043432826583370e+02  4.1967813919917234e+02  4.1747022424485226e+02  4.1494290273803205e+02  3.3590750887022460e+02  3.4064128844850416e+02  3.3745286415346283e+02  5.1334668317155899e+02  5.0639603176288955e+02  5.1313395826836415e+02  5.6788223104904580e+02  5.7484895556297283e+02  5.6809539085427923e+02  5.3213593992008532e+02  5.3908977090940334e+02  5.3235106128800510e+02  7.2981868776001207e+01  7.9772027294698205e+01  7.3192616606851743e+01  5.4628812725991359e+01  4.7848462576769407e+01  5.4427426620883381e+01  3.5925817971115907e+02  3.5231196086566047e+02  3.5900113992213113e+02  1.2444370996220776e+02  1.1763894866947372e+02  1.2424138239571511e+02  1.4286422269653866e+02  1.4967901662746075e+02  1.4307519117236802e+02  1.7790042579237033e+02  1.8472885486934481e+02  1.7810954426909981e+02  2.2976328706598963e+02  2.2286570002451975e+02  2.2951316290842027e+02  3.2376796710454630e+02  3.1688713252444035e+02  3.2356208189445897e+02  3.0617053813247810e+02  3.0808910050770442e+02  3.1078973081976392e+02  2.1167840413415703e+02  2.1382478580216267e+02  2.1651079565714829e+02  1.9577186957707323e+02  1.9366688540196074e+02  1.9099138516500020e+02  3.4140323499105438e+02  3.4338863368372506e+02  3.4608625973400689e+02  1.6057035114417405e+02  1.5853381749540696e+02  1.5586640814021814e+02  1.0665419538072489e+02  1.0874429517950415e+02  1.1141612218714630e+02  3.8428330669571146e+01  3.9748226203892010e+01  4.2412147659703500e+01  9.0755565395979872e+01  8.8661267017642388e+01  8.6003352304549395e+01  4.9543161792520368e+02  4.9744137288013752e+02  5.0016171355255005e+02  5.8611554976635182e+02  5.8396803985713450e+02  5.8123785509098525e+02  5.5020136880249652e+02  5.4812372605197049e+02  5.4540258487664516e+02  4.8188284616209859e+02  4.8465622479287333e+02  6.5417688768751884e+02  6.4802165749228584e+02  6.5116982508998058e+02  6.5416118081929039e+02  6.4871416147031482e+02  6.5115987811449611e+02  6.6009050830262311e+02  6.5714480983756448e+02  6.6010515604584361e+02  6.5716520585667365e+02  1.6393160785296580e+01  2.3934404961844276e+01  1.8135849815414449e+01  1.9877244392560886e+01  2.2189324908546158e+01  6.9902186199805215e+02  6.9905554560385667e+02  7.0364927534183641e+02  6.9908793848064636e+02  7.0361727886190238e+02  7.0821360673192191e+02  6.9902334864967133e+02  6.9905693097124060e+02  7.0365032727560606e+02  7.0361836116201687e+02  7.0821360673192191e+02  6.8038293969014387e+02  6.7320084617316843e+02  6.7628809308641598e+02  6.8039122134462627e+02  6.7321321231623040e+02  6.7630401926525269e+02  8.9726770011494636e+00  9.0026246908108920e+00  4.5166411179889385e+00  9.0333240359934504e+00  4.4862429349240935e+00  0.0000000000000000e+00  2.6060534685002182e+02  2.5624357547687652e+02  2.6147595932948099e+02  2.5537469318867161e+02  2.5974143190453384e+02  3.9027879622289470e+02  3.8588816055327953e+02  3.9114827219366788e+02  3.8501967798120540e+02  3.8941522029456212e+02  4.6514401358203747e+02  4.6955857540734326e+02  4.6427324282855329e+02  4.7042720065091407e+02  4.6600794023214627e+02  6.3295085303549513e+02  6.3740831360925608e+02  6.3571365906275616e+02  6.3126359736042104e+02  6.2956755593462628e+02  8.8632846249646509e+00  8.9479369650151881e+00  4.5171931175833953e+00  4.4310620306215958e+00  0.0000000000000000e+00  2.4156636420108921e+02  2.4629488675792891e+02  2.4319737142444922e+02  3.7110886274722748e+02  3.7586778996898784e+02  3.7274370051811280e+02  4.8427163103232380e+02  4.7955816052230352e+02  4.8268807242839802e+02  6.4802022759371130e+02  6.5417592171912861e+02  6.5417288868321941e+02  6.6009567095924785e+02  6.5416852434376131e+02  6.6010221282755549e+02  6.4871881301308304e+02  4.8132263767663824e+02  4.8761570779840787e+02  4.8705600919797939e+02  2.4859876325120652e+02  2.4980314009457075e+02  2.5503919590418906e+02  2.4980895872979755e+02  2.5624922203014893e+02  3.7739493514820020e+02  3.7900913863258000e+02  3.8427283809417287e+02  3.7941758893312726e+02  3.8629394115592305e+02  6.3988681033249316e+02  6.4087693208663086e+02  6.3472592010352969e+02  4.7729937260042169e+02  4.7644366263216847e+02  4.8217838784286164e+02  4.6992695864564610e+02  4.7078403214933610e+02  4.7607419401031592e+02  6.6495463095910111e+02  6.6549454443081902e+02  6.5956335435897836e+02  6.6548792790678908e+02  6.7074026980957240e+02  6.7020611269981748e+02  6.7545624785923735e+02  6.4157717851303426e+02  6.4702898621299505e+02  6.7074626761389561e+02  2.6128109866863173e+02  2.5615278029554861e+02  2.6137607819609434e+02  3.9095701640976318e+02  3.8620001156245735e+02  3.9105108838332001e+02  4.6448410117883924e+02  4.7003424410748596e+02  4.6438269165050036e+02  2.0772058391676728e+02  1.9976338594938227e+02  1.0267620116575920e+02  3.3212359654381224e+01  9.4722794867791094e+01  5.9018927635286104e+02  6.3583342445477842e+02  6.3067518072269263e+02  6.3177873303242598e+02  6.3752149282857306e+02  2.0376579640528510e+02  1.9976821189985668e+02  2.0376309946593074e+02  2.0772197451810757e+02  9.8703465165047163e+01  9.4728971931970136e+01  9.8699441155545301e+01  2.8982400366644374e+01  3.3705689064811324e+01  2.8488360985129674e+01  1.0267881298745260e+02  5.9427144723012509e+02  5.9019281610510825e+02  5.9426995451290975e+02  2.3772515827845891e+02  2.4508545643640059e+02  2.4316096116159562e+02  2.3964833083447269e+02  3.6725975897889418e+02  3.7425407572742733e+02  3.7232660615673103e+02  3.6918634754989097e+02  4.8078280668504880e+02  4.8566157821004828e+02  4.9180379410525813e+02  4.9124457464786803e+02  6.9158288048629947e+02  6.8369469113336470e+02  6.8929635703178599e+02  6.8701049325748443e+02  6.8598381004801274e+02  6.9158231591877563e+02  6.8369729276641635e+02  6.8929645637022202e+02  6.8598621558981415e+02  6.7792083101135722e+02  6.7791614466093108e+02  1.6683185423253536e+02  1.6166217145040727e+02  1.6482019790500368e+02  5.5658992710749555e+02  5.5131562838686455e+02  5.5453790244202446e+02  5.9831037371891034e+02  4.2368095830191032e+02  4.3170256530777232e+02  5.9831060835127164e+02  4.2768088880414399e+02  4.2367932475326774e+02  4.2768515126295540e+02  4.3169702294032874e+02  2.9774988422655440e+02  3.0340349259776576e+02  3.0196047949404510e+02  2.9919252530104063e+02  3.5077736076555777e+02  3.4489104940152123e+02  3.5133257178346759e+02  1.8618514555766401e+02  1.8564138454933598e+02  1.9201629426765865e+02  2.2133276829037021e+02  2.1549101424054766e+02  2.2188619369545606e+02  3.1539617751139446e+02  3.0951945628898085e+02  3.1595243278742061e+02  4.6379810815321107e+01  4.0591716671698968e+01  4.6927736999428618e+01  8.1217248402972501e+01  8.0676721944989637e+01  8.7016510123139255e+01  1.1616380858260339e+02  1.1035633714360078e+02  1.1671407671564562e+02  1.5113344147149402e+02  1.5059018880536075e+02  1.5695633555994007e+02  5.4057560302857030e+02  5.4002079488570598e+02  5.4651605289242934e+02  5.7633540386170921e+02  5.7578045272033819e+02  5.8228521175284732e+02  5.0490069663837073e+02  4.9897010993879150e+02  5.0546010589077525e+02  2.4465058461476258e+02  2.3921458021562901e+02  2.4069892831610321e+02  3.7387962372241390e+02  3.6881239487319453e+02  3.7036187195662632e+02  3.3184657333200369e+02  3.2802950923166640e+02  3.3229204378653861e+02  3.2758394713828392e+02  3.3140174040491473e+02  5.2231100231379480e+02  5.1804599631948361e+02  5.2274244167732047e+02  5.1761130283036118e+02  5.2188158214835642e+02  5.2317478880827741e+02  5.2743856317335872e+02  5.2787279836043945e+02  5.2360841002370819e+02  3.3865477543321470e+02  3.3409854622348843e+02  3.3684763783386950e+02  2.4585393451529634e+02  3.7590146358151918e+02  2.4428952182028471e+01  2.5819783137192627e+02  3.8786115950271932e+02  6.3452458521828885e+02  4.6756252470274507e+02  2.4275134339541833e+02  3.7239203772042197e+02  2.9157978789209687e+02  2.9298841252920539e+02  2.9634242893367684e+02  4.0148798123315288e+02  4.0837101794285468e+02  4.0200822603924365e+02  6.2072139885635158e+02  6.1376018914829069e+02  6.2019925897463759e+02  4.5377053665854021e+02  4.4693823303016040e+02  4.5331677516960656e+02  2.7187644213273012e+02  2.7864467352872458e+02  2.7232265142430953e+02  1.3365334907583883e+02  1.3826130349696015e+02  1.3365890544303195e+02  1.3825592099594280e+02  1.3364769912210483e+02  1.2905080096005508e+02  1.2904502499091367e+02  6.3804930272346965e+01  6.8396203967345897e+01  6.3810896144497747e+01  6.8390355873500297e+01  6.3799063267861364e+01  5.9219292631480094e+01  5.9213330664183751e+01  6.8123476066745798e+02  2.8010823062497508e+02  2.7961832076789648e+02  2.8597251084334647e+02  6.1219439909567927e+02  6.0623463416164805e+02  6.1269728383253573e+02  4.4546780000199476e+02  4.3955711347658439e+02  4.4596355291494388e+02  4.0990649706236729e+02  4.0941442662027441e+02  4.1580667835762841e+02  3.3948702670706507e+02  3.3588919619238300e+02  3.3544436745932938e+02  5.2978582850683483e+02  5.2626341208779286e+02  5.2583345472607073e+02  5.1570226861440096e+02  5.1922252922660323e+02  5.1965431254249268e+02  1.6953372966021684e+02  1.6370040272082076e+02  1.6505151912203368e+02  1.6818380037818184e+02  5.5934597037394155e+02  5.5339484252460193e+02  5.5477313179046996e+02  5.5796888489203275e+02  0.0000000000000000e+00  0.0000000000000000e+00  4.5167122723696851e+00  7.0821360673192191e+02  7.0821360673192191e+02  7.0365033322833153e+02  7.0821360673192191e+02  0.0000000000000000e+00  2.5897641142644937e+02  3.8863041939195676e+02  6.3395834396515488e+02  4.6683694790215515e+02  6.9530217672336573e+02  6.9533383632287496e+02  6.9530355478330830e+02  6.9533465643584134e+02  3.5303386852611510e+01  2.9882029132318745e+01  3.5062940189707447e+01  3.4842789358573405e+01  3.0129383319783955e+01  2.4950315704192946e+01  2.6657830477913160e+02  2.6667617356951979e+02  3.9622238179555916e+02  3.9631811894558939e+02  4.5912711797945883e+02  4.5902133298428123e+02  6.2624764414196022e+02  6.2514513281302891e+02  2.3522830157828480e+02  2.3374419077664797e+02  3.6480753347665916e+02  3.6326004383107505e+02  2.3150462115116913e+01  2.4063875998600864e+01  2.8990107679132841e+01  1.2681491242926848e+01  1.2714068535244675e+01  1.7236756718513251e+02  1.7371561886827936e+02  5.6223745860065969e+02  5.6361256398534431e+02  1.5819334294998427e+01  1.2340161540534551e+01  1.2426214384267020e+01  1.7066938255243295e+02  1.7620622784000730e+02  1.7453612789068058e+02  5.6050522361846345e+02  5.6615396694377944e+02  5.6444956487417699e+02  2.6938329086595536e+02  2.6542910758109269e+02  2.6456183306871367e+02  3.9926615907908678e+02  3.9520666118623058e+02  3.9433997451069956e+02  4.5612546800761197e+02  4.6019898964295811e+02  4.6106688885575045e+02  6.2334344517692784e+02  6.2645584135577144e+02  6.2814490889012131e+02  2.3686902493103429e+02  2.3140232367877053e+02  2.3301543960464792e+02  3.6646947748927658e+02  3.6091820214436194e+02  3.6255787423530535e+02  2.2679879481338769e+01  1.6885336850853417e+01  1.7374634154068758e+01  5.6441763527637318e+02  5.5820924015965056e+02  5.5567332093655489e+02  5.5200251400657044e+02  5.6188207943049520e+02  9.8711400206043436e+01  1.0187194132565388e+02  1.0504005065039777e+02  9.5543447942307736e+01  9.2384545768990293e+01  2.0949699027637433e+02  2.0345042878978799e+02  2.0058559900558492e+02  1.9740704992583977e+02  2.0663166555693596e+02  1.2788061553241441e+02  1.3363175154466853e+02  1.3652141461185434e+02  1.3938533039582236e+02  1.3076979772275789e+02  5.8054429754610716e+01  6.3784895605498164e+01  6.6663498573607242e+01  6.9517616876688678e+01  6.0932701984962122e+01  1.7450484224853074e+02  1.6593374350419143e+02  1.7201959032088033e+02  1.6841926450013909e+02  1.6233506245864174e+02  2.3159536222257378e+02  2.3466187963921496e+02  2.3657858528085916e+02  3.6146887336463118e+02  3.6436561023793894e+02  3.6628701019327696e+02  4.9433278843273217e+02  4.9069304327228741e+02  4.8930387718834095e+02  2.9072649038774534e+02  2.9423920325732564e+02  2.9567884530432832e+02  3.2667726156792406e+02  3.2948635773983045e+02  3.3129113091305777e+02  2.9954868593205794e+02  3.0095378131071232e+02  3.0415994105872500e+02  4.2151974492647020e+02  4.3085905044282003e+02  4.2459964700524807e+02  4.2777790911908619e+02  4.3403697682539519e+02  6.0051718454896286e+02  5.9414816258706276e+02  5.9102619848521908e+02  5.8778256505356683e+02  5.9739482206418040e+02  2.2413972846372381e+01  2.6968235268135924e+01  2.2610000522239167e+02  2.2773900558233134e+02  3.2013771375353070e+02  3.2546950748054883e+02  3.2183942478955316e+02  3.2715783972681629e+02  1.2085315533487541e+02  1.2612467592555389e+02  1.2253329888552788e+02  1.2778587170072269e+02  5.0968083309178843e+02  5.1507060514439968e+02  5.1139745198407218e+02  5.1676509802629141e+02  1.4645529782253968e+02  1.4117011936216196e+02  1.4476098964898131e+02  1.3949574198401746e+02  5.7155417613109353e+02  5.6982526654380263e+02  5.3580080566193885e+02  5.3040929238537126e+02  5.3407406267128010e+02  5.2870959652011254e+02  7.6559408433769718e+01  7.1293444544832610e+01  7.4870496763174359e+01  6.9625366914289216e+01  5.1051253663898734e+01  5.6303731617119617e+01  5.2725617530745708e+01  5.7958903921799880e+01  1.8149936035733256e+02  1.7980463958346073e+02  3.5557071584085230e+02  3.5722359744807039e+02  4.0350633161421473e+02  3.9979237485642159e+02  3.9811901651330390e+02  4.0520259274316368e+02  4.5187766746945618e+02  4.5554960255089708e+02  4.5730640589038944e+02  4.5011343763051508e+02  6.1866500221694184e+02  6.2243470206014354e+02  6.2411440732289395e+02  6.1696036604961364e