<?xml version="1.0"?>
<VTKFile type="UnstructuredGrid"  version="0.1"  >
<UnstructuredGrid>
<Piece  NumberOfPoints="2690" NumberOfCells="4864">
<Points>
<DataArray  type="Float64"  NumberOfComponents="3"  format="ascii">-5.103328770614252 22.02255509379356 0  -5.68818443334598 21.28524919486746 0  -5.101322479518846 21.5243980835086 0  -5.098867446188986 21.02263718519092 0  -5.690258681452665 21.78567465197266 0  -6.277096460397876 21.54515788231627 0  -9 21.99999999996945 0  -8.411965155194117 21.2672135576255 0  -9 21.49999999997139 0  -9 20.99999999997333 0  -8.41233254034063 21.76718755133067 0  -7.82432182211679 21.53431497000118 0  -9 32.9999999999446 0  -8.41997147243438 32.2671390212651 0  -9 32.49999999994358 0  -9 31.99999999994255 0  -8.420337974889756 32.7671464926022 0  -7.840329840471363 32.53423800022534 0  -5.156416171695353 33.02435324035709 0  -5.653083000562004 32.32046430608729 0  -5.154336409818143 32.52760440507333 0  -5.15166953123736 32.02356472939 0  -5.655240106211837 32.82109541556076 0  -6.153966001160476 32.614327092287 0  -5.260053352272778 54.02316612860381 0  -5.826997205006198 54.7595721090817 0  -5.824942995552768 54.26054764506287 0  -6.389439298299499 54.49454103849499 0  -5.262532210749026 54.52492874014892 0  -5.264593161347725 55.02335689026603 0  -9 54.99999999998974 0  -8.504546471880259 54.30008318423361 0  -9 54.49999999998872 0  -9 53.99999999998769 0  -8.504875737079679 54.79998339831144 0  -8.009492022197835 54.59999966309315 0  -9 39.99999999995897 0  -8.426199667318846 40.74206030554732 0  -8.425832870135991 40.24206611066181 0  -7.852017049452816 40.48406269844129 0  -9 40.49999999996 0  -9 40.99999999996102 0  -5.195390614375428 41.02147948534903 0  -5.740936757987877 40.29098069638317 0  -5.193322122644422 40.52501212406242 0  -5.190880196860678 40.02421809789357 0  -5.743010972946144 40.79061690882007 0  -6.290611663585765 40.55578856759941 0  -9 55.99999999999179 0  -8.461152098388693 56.74754171400782 0  -8.460827757353517 56.24747808824586 0  -7.921994866951048 56.49495661954867 0  -9 56.49999999999282 0  -9 56.99999999999384 0  -5.270026456646444 56.02208491860944 0  -5.81228121975958 56.76551015117708 0  -5.810273680395715 56.26541194889474 0  -6.350049742678942 56.5059370161477 0  -5.272658758435406 56.52567571344176 0  -5.274715893726027 57.02344495860508 0  -7.517764646199216 43.01278239912973 0  -6.713794226878616 43.12814576629771 0  -7.292240918175506 43.35229120472756 0  -7.066902470776151 43.69181578665942 0  -6.939121363069095 42.78849501599834 0  -6.360160769709374 42.5642196801961 0  -6.705269403302661 49.02418391012721 0  -7.503268617985201 48.90745929024204 0  -6.928853863140054 48.68450727565323 0  -7.152666105846524 48.34475472386946 0  -7.279480565378776 49.24709020003904 0  -7.85333604806454 49.47016843196555 0  -6.696392147832373 46.02270749622243 0  -7.497480711726094 45.90649795604924 0  -6.92089342075281 45.68275518363388 0  -7.145601821171377 45.34292039244686 0  -7.272784420174133 46.24631355241286 0  -7.848852383893398 46.46983547330398 0  -6.582001178129251 7.023468589622005 0  -7.422884175546366 6.90710604254854 0  -6.81770493451226 6.68377872672083 0  -7.053617234069631 6.344093684839944 0  -7.186984366392084 7.246786014724537 0  -7.791645434239769 7.470088369891652 0  -7.493051479736165 30.01263966291695 0  -6.675661015363161 30.127822395796 0  -7.263771208377827 30.35179759771128 0  -7.034684600823272 30.69087470491919 0  -6.904747277565684 29.78858789168649 0  -6.316112172817784 29.56466604214234 0  -6.57372299845689 4.022333152729324 0  -7.417915190928633 4.122743619765727 0  -6.811920923724721 4.357681799767829 0  -7.049960238316016 4.692958199026114 0  -7.179886788770236 3.787423404993706 0  -7.786328040634505 3.55265790139643 0  -6.590532631408774 10.02366101374179 0  -7.428837794355543 10.12363192186026 0  -6.827122943409634 10.35871476911442 0  -7.063543500538137 10.69377037220643 0  -7.192399217690782 9.788601125526226 0  -7.794602378756867 9.55351119842117 0  -6.599088565329467 13.02388224338341 0  -7.434010889348428 12.9074388282327 0  -6.833105323790615 12.68420021526245 0  -7.067329290109296 12.34452491159362 0  -7.199789393644116 13.24714725302938 0  -7.800179834300335 13.47034780259771 0  -6.607713260537261 16.02424651226393 0  -7.439654566858785 15.90754782457591 0  -6.840882707167448 15.68459225093588 0  -7.074267051670328 15.34487829819124 0  -7.20629071801789 16.24717429061302 0  -7.804529866219253 16.47023822358142 0  -6.616688585043814 19.02172212184457 0  -7.445928564646107 19.12211016969565 0  -6.850829511508645 19.35637890284044 0  -7.084754383524955 19.69117364546138 0  -7.211982583414692 18.78724297789845 0  -7.807639636904297 18.55270208353643 0  -6.640235565447736 27.02091331035404 0  -7.461289439769007 27.12160496278933 0  -6.872020447481003 27.35603064706242 0  -7.103623298783476 27.69118146658446 0  -7.229687080465704 26.78632381807538 0  -7.81946075313533 26.55192523873817 0  -8.285457631068208 19.10029927275843 0  -8.046632767719746 18.82646483905952 0  -8.403614541213734 18.27641450181788 0  -8.64247933361395 18.55024940015926 0  -9 17.99999999998495 0  -8.292525087507801 27.10004475660896 0  -8.056072625360493 26.82598797511224 0  -8.409533607572007 26.27594140610058 0  -8.646023670367569 26.55001797483044 0  -9 25.99999999995395 0  -8.282601436062512 15.91329336449061 0  -8.043483681344224 16.19177866489029 0  -8.402463884559419 16.73506845960968 0  -8.641541706698524 16.45660982969001 0  -9 16.99999999998883 0  -5.847587091503412 30.12152962514895 0  -6.081763525226146 29.84307506804291 0  -5.72696537735114 29.29897989690943 0  -5.492793045859298 29.57850222719899 0  -5.136732431996423 29.02257220617065 0  -8.280001881813897 12.91328249577654 0  -8.04001096614661 13.19181043703112 0  -8.400281551423355 13.73518377347555 0  -8.640236204123092 13.4566522154271 0  -9 13.99999999999401 0  -8.277599843956999 10.10101272584368 0  -8.036178384769233 9.827262831235942 0  -8.397107223922855 9.276752015946906 0  -8.638568316355435 9.550501922195217 0  -9 8.99999999999857 0  -8.272595236270936 4.100592112923688 0  -8.029530705618447 3.826643668119647 0  -8.393009451975256 3.276296285307831 0  -8.63609497204973 3.550249366912146 0  -9 2.999999999998668 0  -8.274889667235112 6.913115997728739 0  -8.033188001054405 7.191597728412281 0  -8.396013500348806 7.735050763185576 0  -8.637677763926686 7.456571746882314 0  -9 7.999999999999485 0  -8.309186514305566 45.91283562484634 0  -8.07893872005139 46.19130873875081 0  -8.424622320420701 46.73495986733447 0  -8.654831408618069 46.45648920241442 0  -9 46.99999999997333 0  -8.31185068471166 48.91323992648659 0  -8.082507966246842 49.19171742103329 0  -8.426874144494199 49.73503086822653 0  -8.65617555880295 49.45658649682748 0  -9 49.99999999997949 0  -5.899359425070286 43.12180898554067 0  -6.129672005102484 42.84301273463297 0  -5.7806892994479 42.29822112187284 0  -5.550392974260896 42.57821321645716 0  -5.200077430714586 42.02163254804964 0  -5.818676305499483 23.94421675564154 0  -6.061368847691037 24.20950437647556 0  -5.710915915219414 24.75397439528449 0  -6.303886805536598 24.47486965981776 0  -5.468382656618069 24.48975552440673 0  -5.117853147887666 25.02236323786521 0  -8.319239031264319 52.09000080738515 0  -8.085683569853293 51.82457124861509 0  -8.425764138076746 51.27966725898352 0  -7.851957794976916 51.55920627328351 0  -8.659366971858706 51.54509555087534 0  -9 50.99999999998153 0  -5.874815176190128 38.11127064912304 0  -6.111272872866905 37.84094781208173 0  -5.762310907246884 37.30151924351168 0  -6.347898582080804 37.57068836793449 0  -5.525855729413721 37.57314096382905 0  -5.175538088310244 37.0206217340339 0  -5.862175903819805 34.94400151751229 0  -6.101585561805383 35.2091259419043 0  -5.755988085621119 35.75330916121543 0  -6.340821171299039 35.47432231853435 0  -5.516723048168148 35.4894192553534 0  -5.171085295641476 36.02127411018637 0  -7.951268548626651 50.51068343941596 0  -7.901574854516098 51.03497394540094 0  -8.47580990885689 50.75528174397715 0  -6.241705792847296 36.52226289562257 0  -6.294826696005063 37.04633623129414 0  -5.708801185484649 36.77541935111005 0  -6.291227794513143 35.99813622601823 0  -5.706689864110482 36.27514490661232 0  -6.066933202077462 25.2844614258344 0  -6.185364222589211 24.8797104994634 0  -5.592650663505619 25.15754475088953 0  -8.057070608273722 25.75392752919918 0  -7.938207286857947 26.15292550441607 0  -8.528607537600436 25.87696763251061 0  -7.026438292628097 34.39237056884352 0  -6.683391134224406 34.93348227682733 0  -6.930530871979755 35.25580435718946 0  -7.273609759157814 34.71488382172543 0  -7.520575521509127 35.03735622013485 0  -7.18038379624516 52.64052369591287 0  -7.515917740018249 52.09998859713839 0  -7.274243813129343 51.77801730112508 0  -6.938733702609118 52.31862494553912 0  -6.69686660400192 51.99678995114634 0  -7.03710310574661 38.64041680401417 0  -6.692740395068413 38.10568435223068 0  -6.937172717353335 37.77894058209826 0  -7.281514281431773 38.3138774222628 0  -7.526128495425164 37.98728636828708 0  -6.999103723933857 23.39249093888996 0  -6.6512614735029 23.93376498002698 0  -6.901796496417831 24.25619130177408 0  -7.249674643170899 23.71507808116886 0  -7.500042673865122 24.03760178876632 0  -7.906659647780961 17.51058149551877 0  -7.857112816088527 18.03167594609666 0  -8.45350078439475 17.75522959285035 0  -7.855625557872921 16.99042219289144 0  -8.453159200323196 17.25532484068841 0  -7.894805226894109 8.51082033053255 0  -7.844674092997231 9.03216797841211 0  -8.447562795794708 8.755412471748437 0  -7.934559712548481 2.424999370225212 0  -7.860380595319486 2.988800297707277 0  -8.467429839439401 2.712531051005963 0  -7.843257556275945 7.990460263105338 0  -8.447237894076228 8.255402577654637 0  -7.902335422397551 49.99043936619963 0  -8.475456993714532 50.2553779589383 0  -6.17429842914818 41.61495093685026 0  -6.267290288169414 42.08968823437941 0  -5.
[...]
<PointData  Scalars="f_29"> 
<DataArray  type="Float64"  Name="f_29"  format="ascii">2.3265344277221271e+02  2.2456301054725839e+02  2.2715192906881614e+02  2.2166257238677142e+02  2.3003186359933380e+02  2.2741603035062147e+02  2.3253714693538564e+02  2.2445181889263696e+02  2.2703405647761085e+02  2.2153902557102043e+02  2.2992255636827770e+02  2.2734945305070082e+02  3.5437055605914054e+02  3.4604152884374997e+02  3.4870112337703921e+02  3.4304167258883598e+02  3.5167760331746882e+02  3.4902422194733617e+02  3.5445604562931294e+02  3.4652647000767200e+02  3.4881241752039261e+02  3.4318858331711664e+02  3.5215173773891422e+02  3.4984897634267548e+02  5.9715045942189624e+02  6.0600328142534636e+02  6.0003332841709857e+02  6.0285361488536250e+02  6.0314372699000523e+02  6.0916530278722462e+02  6.0903679546488183e+02  6.0064214686723881e+02  6.0305905955751336e+02  5.9708216347499797e+02  6.0661223374095073e+02  6.0419964852420742e+02  4.3370867318215926e+02  4.4226191022019185e+02  4.3650560457149760e+02  4.3926197034795069e+02  4.3950008890170096e+02  4.4528564132724506e+02  4.4539777622838415e+02  4.3695097694461776e+02  4.3961820163829452e+02  4.3383201900220087e+02  4.4271746945129286e+02  4.4002890047639573e+02  6.2095205145362502e+02  6.2990783211643816e+02  6.2391408974974706e+02  6.2684652805784924e+02  6.2695480729408700e+02  6.3298877095636681e+02  6.2105845518409876e+02  6.2998974937455796e+02  6.2400015279150364e+02  6.2689924246739861e+02  6.2705493154295323e+02  6.3309172276752781e+02  4.6833844393513897e+02  4.6960693864121180e+02  4.7223890723779675e+02  4.7614469630944694e+02  4.6571210281270396e+02  4.6308536798758513e+02  5.3810181408712958e+02  5.3680423580007982e+02  5.3414167457938208e+02  5.3018534127429848e+02  5.4076890574347965e+02  5.4343249236465158e+02  5.0310189191798122e+02  5.0181343568604865e+02  4.9917873362899155e+02  4.9525692515089986e+02  5.0574212916156949e+02  5.0837971364591681e+02  7.2385483677878426e+01  7.1222949622875618e+01  6.8856708577755825e+01  6.5330546224315242e+01  7.4756179283637266e+01  7.7123569197404663e+01  3.2074092198519293e+02  3.2196786668982151e+02  3.2451295895742697e+02  3.2829094120962776e+02  3.1820347357875306e+02  3.1566662576406623e+02  4.1200164953195944e+01  4.2295442786323349e+01  4.4686856712199500e+01  4.8175031313688095e+01  3.8813412192891661e+01  3.6426793441704554e+01  1.0385912008582638e+02  1.0496801622137481e+02  1.0740691135093674e+02  1.1095569607999686e+02  1.0142390459190416e+02  9.8991118436800903e+01  1.3559003333274629e+02  1.3440577102558953e+02  1.3199964011399484e+02  1.2841183264021424e+02  1.3799995214170201e+02  1.4040716647728618e+02  1.6758888198208984e+02  1.6639943939322001e+02  1.6396696636895882e+02  1.6034877489218439e+02  1.7002575735258532e+02  1.7245906306427850e+02  1.9990220883116353e+02  2.0105595986894454e+02  2.0355535067157734e+02  2.0721254129873302e+02  1.9741050467668191e+02  1.9491667094632103e+02  2.8744902124527982e+02  2.8862716090806714e+02  2.9117756254733285e+02  2.9490885442570732e+02  2.8490554459830486e+02  2.8235907194506512e+02  2.0087224672864099e+02  1.9789522690548085e+02  1.9197946510743770e+02  1.9494662545819875e+02  1.8906030337096459e+02  2.8844270101446403e+02  2.8540091869899118e+02  2.7935576160281846e+02  2.8238808768162164e+02  2.7636458715128964e+02  1.6651578909532094e+02  1.6948660083879983e+02  1.7533262931411721e+02  1.7235647740498092e+02  1.7817902639168557e+02  3.2181043789580502e+02  3.1874060225211883e+02  3.1268256187886715e+02  3.1571540344972885e+02  3.0971671127814238e+02  1.3451699135749766e+02  1.3746121087749944e+02  1.4325057028460483e+02  1.4030779476250791e+02  1.4608164591684726e+02  1.0478270675861678e+02  1.0188758145022692e+02  9.6128760576712637e+01  9.9014895458616607e+01  9.3285958973156482e+01  4.2118200755700002e+01  3.9272694236028997e+01  3.3613360094390842e+01  3.6456281954976973e+01  3.0829721003287236e+01  7.1332239049751195e+01  7.4227119274249048e+01  7.9919986629111634e+01  7.7020473150697597e+01  8.2689144372773512e+01  5.0194186998003727e+02  5.0515991589580153e+02  5.1149474832185433e+02  5.0827770778349054e+02  5.1459715546447944e+02  5.3693534599500958e+02  5.4018307735855456e+02  5.4657787478736770e+02  5.4332485531494751e+02  5.4969729329728034e+02  4.6944660386599531e+02  4.6626782611699548e+02  4.5999579024297265e+02  4.6313768498005379e+02  4.5692971932136629e+02  2.5351025956937781e+02  2.5645163718010991e+02  2.6242121015438488e+02  2.5939129804606176e+02  2.5945002642714553e+02  2.6544296867929688e+02  5.7436949593985412e+02  5.7121450972661876e+02  5.6481045596026013e+02  5.6805886750730929e+02  5.6795540719764426e+02  5.6157954829069820e+02  4.1193037227768525e+02  4.0888716092636577e+02  4.0276112622161384e+02  4.0584194185468539e+02  4.0576142416049646e+02  3.9970546266054845e+02  3.7597781829157691e+02  3.7901099955077592e+02  3.8516081212496698e+02  3.8204302400920972e+02  3.8209288856775504e+02  3.8826046229958121e+02  5.5568427812090692e+02  5.6187159222105231e+02  5.5861386463569715e+02  3.9396023394266518e+02  3.9989965544201073e+02  3.9682390767154237e+02  3.8799471216406477e+02  3.9112682515091814e+02  2.6830443615245565e+02  2.6384404402648528e+02  2.6689631715258395e+02  2.7357334925930115e+02  2.7796590401024793e+02  2.7495491874981536e+02  3.6987399703316601e+02  3.7595059230828622e+02  3.7961674854371188e+02  3.7353226395585062e+02  3.7719256629931294e+02  5.8080666208714786e+02  5.7442711718807288e+02  5.7059694359727541e+02  5.7696996587818876e+02  5.7313702223198902e+02  4.1807812735653255e+02  4.1194968527225944e+02  4.0824980487807824e+02  4.1436992770659310e+02  4.1066378628561591e+02  2.4758249910579846e+02  2.5347863329225055e+02  2.5703286209420207e+02  2.5112921783915721e+02  2.5467741455082233e+02  1.8366262233831188e+02  1.8928934000783889e+02  1.8634264522331696e+02  1.7805487635070418e+02  1.8093823785833774e+02  8.8034342460544167e+01  9.3513010935600931e+01  9.0640953533746796e+01  2.4795038733036044e+01  3.0611118518800740e+01  2.7796690208967533e+01  8.2573301141942267e+01  8.5378710698660882e+01  5.4955237369264444e+02  5.5270744223552697e+02  4.5219312998232806e+02  4.5763653888385102e+02  4.5455345390905097e+02  2.6200002800795835e+02  2.6069755153139971e+02  2.5833577843341141e+02  5.6368351774870928e+02  5.6587094960751938e+02  5.6840890699443696e+02  4.0161212145796071e+02  4.0372814009790153e+02  4.0613434504089344e+02  3.8625598567462947e+02  3.8415146143012049e+02  3.8172052646895577e+02  3.0676092484601514e+02  3.1121158276802657e+02  3.0823179008423693e+02  4.7657838699727802e+02  4.6981844132048332e+02  4.7636351318353707e+02  5.2974263208182674e+02  5.3658128155779593e+02  5.2996498534093382e+02  4.9481193876602947e+02  5.0159093517204582e+02  4.9503544911238725e+02  6.4928882445761360e+01  7.1020646852156418e+01  6.5131318625313341e+01  4.8512822201673615e+01  4.2465624691953813e+01  4.8345690082960807e+01  3.2879658524375770e+02  3.2221703101554550e+02  3.2854642673753290e+02  1.1129476502953621e+02  1.0513907353409866e+02  1.1112686844433500e+02  1.2800164156611450e+02  1.3419950061594250e+02  1.2820827907611019e+02  1.5994068200009528e+02  1.6619394597593239e+02  1.6014576586446353e+02  2.0765688014469114e+02  2.0128029855105541e+02  2.0743794630328523e+02  2.9527637347849918e+02  2.8881194663507858e+02  2.9509453608815261e+02  2.7878095139500698e+02  2.8056975144674732e+02  2.8311336789758593e+02  1.9097778096060424e+02  1.9294723768095872e+02  1.9543808430386781e+02  1.7634780917035377e+02  1.7440454476417662e+02  1.7196653968841346e+02  3.1190893521322249e+02  3.1378955541346454e+02  3.1632205779417041e+02  1.4414388730342625e+02  1.4227606945021739e+02  1.3986509501016107e+02  9.5239424831004811e+01  9.7115633222538307e+01  9.9546811661792120e+01  3.4095786397460728e+01  3.5261943884697878e+01  3.7646612838033775e+01  8.0914044473593719e+01  7.9019859095212638e+01  7.6647480212911418e+01  4.5918393654118586e+02  4.6113565828714025e+02  4.6375897888871589e+02  5.4768182748020115e+02  5.4555830406105486e+02  5.4288984835723693e+02  5.1246041222109307e+02  5.1042055491905654e+02  5.0777884955313857e+02  4.4611188198247100e+02  4.4879451750239178e+02  6.1508853460351077e+02  6.0897284776588083e+02  6.1209770154245712e+02  6.1503068392700345e+02  6.0961432475256231e+02  6.1203065796524277e+02  6.2093763561938897e+02  6.1799085568531132e+02  6.2099436181500664e+02  6.1807394659942236e+02  1.4508775192482902e+01  2.1202606714561909e+01  1.6059884324104676e+01  1.7608117848246817e+01  1.9647394273115481e+01  6.5981629346873046e+02  6.5985351952943665e+02  6.6446090075927600e+02  6.5988845799041690e+02  6.6442688671369001e+02  6.6904083788470450e+02  6.5981762263373696e+02  6.5985632191158788e+02  6.6446276226753628e+02  6.6442803828179149e+02  6.6904083788470450e+02  6.4116663547217570e+02  6.3400308392285092e+02  6.3706691192838286e+02  6.4120575089381816e+02  6.3405436261519560e+02  6.3713626712246344e+02  7.9315240095014916e+00  7.9646089118321255e+00  3.9954810876242042e+00  7.9947751034253809e+00  3.9650521392597384e+00  0.0000000000000000e+00  2.3626117325943972e+02  2.3221889170868522e+02  2.3708711212184940e+02  2.3139297630217840e+02  2.3544040774661266e+02  3.5820062061038197e+02  3.5403392262715482e+02  3.5904334350760109e+02  3.5319138193152008e+02  3.5736251826769319e+02  4.2990324230599725e+02  4.3416906582962224e+02  4.2907835341363801e+02  4.3499081353219844e+02  4.3072114751071928e+02  5.9400195061484749e+02  5.9843083539970360e+02  5.9673067658302239e+02  5.9231407635995663e+02  5.9061785251717902e+02  7.8385539390067285e+00  7.9180492503866864e+00  3.9963105113259596e+00  3.9167352523816321e+00  0.0000000000000000e+00  2.1865021476177935e+02  2.2303544861432735e+02  2.2017384540444499e+02  3.3998570399756778e+02  3.4450422326406175e+02  3.4152239780247578e+02  4.4836009083355958e+02  4.4380985976034970e+02  4.4681466305437897e+02  6.0896046585004967e+02  6.1508394034892092e+02  6.1507036365646877e+02  6.2095606762011789e+02  6.1505366042382320e+02  6.2098174511960724e+02  6.0963312395154230e+02  4.4555614915240102e+02  4.5163800814876407e+02  4.5108310272603700e+02  2.2514116827244598e+02  2.2624467240846280e+02  2.3111520000531604e+02  2.2627797576200672e+02  2.3224958920838665e+02  3.4598138049961250e+02  3.4750216596676216e+02  3.5251195745873395e+02  3.4791581287215530e+02  3.5444328867906654e+02  6.0086257319319884e+02  6.0186027788008153e+02  5.9573831130565827e+02  4.4165635354727016e+02  4.4084338617751627e+02  4.4637043249181954e+02  4.3454733773080500e+02  4.3536412589612831e+02  4.4046113801488104e+02  6.2580615739055315e+02  6.2635407140130360e+02  6.2043682173811897e+02  6.2632783829730442e+02  6.3156152962157864e+02  6.3103945165733046e+02  6.3627265398811471e+02  6.0253186736154123e+02  6.0796408111605808e+02  6.3158595281620990e+02  2.3692969717784365e+02  2.3217694504392227e+02  2.3700878882687155e+02  3.5888449228096363e+02  3.5436839683372131e+02  3.5896453443087131e+02  4.2930260570375890e+02  4.3466551934401252e+02  4.2919676348838647e+02  1.8732123885845809e+02  1.8000204058832847e+02  9.1637669453421552e+01  2.9445587786227517e+01  8.4471339796116212e+01  5.5168010098481693e+02  5.9682393975459183e+02  5.9170570828701477e+02  5.9278632005044938e+02  5.9849010367148901e+02  1.8369606709176151e+02  1.8002054359977447e+02  1.8368093520464944e+02  1.8733593687984063e+02  8.8070908843774589e+01  8.4491168494670234e+01  8.8054230807735038e+01  2.5696239775816974e+01  2.9895873117041159e+01  2.5247826381804011e+01  9.1654171905924258e+01  5.5571653937010592e+02  5.5169756798434298e+02  5.5570198316864844e+02  2.1505757653858515e+02  2.2190045558200481e+02  2.2009880959371276e+02  2.1685739175078777e+02  3.3636435683414572e+02  3.4298484501459831e+02  3.4117197565808937e+02  3.3817730289794349e+02  4.4500512741810877e+02  4.4972004863298537e+02  4.5568501756795678e+02  4.5513366032080160e+02  6.5236844013057055e+02  6.4448379680592404e+02  6.5008513517556298e+02  6.4780278869616586e+02  6.4676634474617026e+02  6.5237009703794581e+02  6.4449738201184971e+02  6.5008760801193910e+02  6.4678217492200895e+02  6.3873748633619039e+02  6.3871673309616756e+02  1.4982279546302689e+02  1.4511157719977155e+02  1.4796998164392414e+02  5.1867850103065655e+02  5.1352535007230642e+02  5.1665507076081815e+02  5.5968469141790865e+02  3.9010144756999330e+02  3.9778292043547196e+02  5.5969915536763483e+02  3.9391803983683860e+02  3.9008696514720197e+02  3.9393691564598049e+02  3.9776521274604653e+02  2.7090302525011532e+02  2.7617733691393272e+02  2.7484195391424663e+02  2.7223764468957012e+02  3.2077040444753220e+02  3.1520572735745895e+02  3.2129935076522588e+02  1.6748748089386680e+02  1.6700316048518934e+02  1.7283703152702589e+02  1.9982738213857957e+02  1.9443479843955200e+02  2.0035135084933449e+02  2.8737741849849516e+02  2.8186468279891432e+02  2.8791170793059575e+02  4.1119056062845253e+01  3.5965279572363727e+01  4.1620299044602262e+01  7.2277353776530006e+01  7.1805858708285797e+01  7.7487832117967287e+01  1.0376227727876767e+02  9.8515658037532589e+01  1.0427392312561612e+02  1.3547962966594650e+02  1.3499959829119305e+02  1.4078257368316329e+02  5.0299997138131982e+02  5.0247233445292215e+02  5.0880009975978624e+02  5.3800102117538552e+02  5.3746982167671990e+02  5.4385267567843528e+02  4.6836879534060529e+02  4.6261140995601085e+02  4.6891679713372611e+02  2.2146180695831035e+02  2.1642287826334919e+02  2.1778084531513844e+02  3.4265973543605440e+02  3.3785203363483532e+02  3.3933438581776323e+02  3.0288328960917022e+02  2.9929629574868261e+02  3.0332015276358698e+02  2.9886011458085045e+02  3.0244707490340124e+02  4.8529911837163644e+02  4.8114152418433548e+02  4.8569708077431022e+02  4.8073687799441296e+02  4.8491093701881096e+02  4.8609791184690715e+02  4.9025284416396926e+02  4.9065592083932569e+02  4.8650035923999963e+02  3.0933202446847025e+02  3.0503797272026418e+02  3.0761423731646943e+02  2.2256404078021882e+02  3.4459130484975105e+02  2.1650564804712236e+01  2.3399360643192875e+02  3.5587174140754809e+02  5.9557768595341145e+02  4.3221233414261809e+02  2.1966740668217591e+02  3.4127168571062504e+02  2.6514791569142352e+02  2.6645077936175295e+02  2.6960349921129989e+02  3.6889414888466297e+02  3.7545520398959218e+02  3.6938555027731127e+02  5.8182546432646086e+02  5.7493593647276896e+02  5.8131953914331746e+02  4.1896670767089796e+02  4.1239134233813934e+02  4.1852534463151153e+02  2.4676308500657350e+02  2.5306446622732034e+02  2.4717441182259006e+02  1.1964619139874154e+02  1.2383465502843582e+02  1.1967084768296300e+02  1.2381020161442426e+02  1.1962120517461811e+02  1.1548136542045764e+02  1.1545616726455043e+02  5.6717466162583818e+01  6.0832986392325424e+01  5.6739803205625911e+01  6.0810405366806620e+01  5.6694827573255004e+01  5.2624384169374032e+01  5.2602075656164466e+01  6.4203677789653079e+02  2.5443334639208527e+02  2.5398064285046635e+02  2.5990646394864370e+02  5.7334965487925729e+02  5.6745595939356963e+02  5.7385996433897662e+02  4.1098295929404753e+02  4.0530080565174273e+02  4.1146299582172429e+02  3.7692594043341512e+02  3.7645998388334726e+02  3.8256490362989206e+02  3.1007721678322508e+02  3.0669731140805919e+02  3.0626120782874369e+02  4.9257703561732876e+02  4.8913722707983925e+02  4.8873979892454565e+02  4.7882339154908345e+02  4.8225919612478896e+02  4.8266041556789901e+02  1.5232176323021096e+02  1.4698211707725901e+02  1.4823150657421712e+02  1.5107451718108533e+02  5.2140528262624332e+02  5.1556831880289474e+02  5.1693127215330560e+02  5.2004403262912399e+02  0.0000000000000000e+00  0.0000000000000000e+00  3.9967462065784125e+00  6.6904083788470450e+02  6.6904083788470450e+02  6.6446325390616084e+02  6.6904083788470450e+02  0.0000000000000000e+00  2.3480098574790230e+02  3.5668218022938294e+02  5.9493692400705049e+02  4.3158366854632641e+02  6.5609048964492581e+02  6.5612695313396398e+02  6.5609201236780939e+02  6.5612794330393172e+02  3.1336616421716148e+01  2.6531449361232269e+01  3.1136177336056363e+01  3.0949949576236968e+01  2.6739732439009178e+01  2.2131002454963113e+01  2.4184451788666084e+02  2.4192508424753282e+02  3.6388837056445612e+02  3.6396842173638129e+02  4.2413377352320697e+02  4.2402123904239795e+02  5.8730213704568166e+02  5.8622079921822376e+02  2.1271534513631349e+02  2.1135550125750328e+02  3.3406288865523385e+02  3.3258237849279828e+02  2.0519127557815079e+01  2.1348055364809063e+01  2.5723411672152832e+01  1.1217527209787692e+01  1.1252955635075956e+01  1.5488125051825679e+02  1.5612810998507587e+02  5.2420971582536583e+02  5.2557088816313819e+02  1.4009218696196273e+01  1.0921551411175763e+01  1.1000729321085515e+01  1.5330805055112879e+02  1.5837205025301267e+02  1.5682342677878344e+02  5.2249227377442844e+02  5.2802945327974510e+02  5.2633491483639114e+02  2.4441140114392388e+02  2.4074705610679322e+02  2.3992472426394525e+02  3.6674602657754662e+02  3.6289265763190588e+02  3.6205273663794662e+02  4.2120408255019612e+02  4.2513933953974555e+02  4.2596199061828969e+02  5.8446265491273857e+02  5.8754021497304348e+02  5.8922517886878541e+02  2.1421526837156841e+02  2.0915671560662881e+02  2.1063328203459841e+02  3.3564807570860228e+02  3.3038435546152181e+02  3.3195826869062068e+02  2.0074496154589546e+01  1.4939140240611289e+01  1.5364257699942145e+01  5.2639139816836280e+02  5.2031838222581291e+02  5.1782486233577231e+02  5.1424935276276358e+02  5.2389889082806167e+02  8.8104245476468108e+01  9.0939358435768412e+01  9.3807809586231500e+01  8.5237892022800892e+01  8.2408037167128370e+01  1.8899099260113664e+02  1.8343123849676729e+02  1.8078525073811227e+02  1.7787958034125265e+02  1.8634374890765935e+02  1.1446103749749626e+02  1.1967202061742741e+02  1.2227985154753213e+02  1.2489333660381313e+02  1.1706551734800451e+02  5.1616070141808770e+01  5.6739238786301534e+01  5.9303106900637339e+01  6.1871557133238653e+01  5.4177597118696397e+01  1.5688269488586980e+02  1.4905120181542190e+02  1.5460308338213304e+02  1.5133203845488424e+02  1.4578511590642501e+02  2.0939756973180712e+02  2.1222977026360641e+02  2.1402049490853497e+02  3.3085314545857244e+02  3.3360965881035230e+02  3.3541705112373194e+02  4.5809746949195932e+02  4.5458837752333159e+02  4.5322952860404956e+02  2.6431222550448007e+02  2.6760804263334643e+02  2.6893951542618407e+02  2.9806152812557940e+02  3.0069227161182664e+02  3.0241045815260907e+02  2.7261707852184270e+02  2.7391345426573923e+02  2.7692354977023086e+02  3.8799200398194228e+02  3.9694787896491863e+02  3.9095413505284864e+02  3.9398386318538508e+02  3.9998094746535003e+02  5.6190195304881411e+02  5.5562190073541433e+02  5.5253146636105566e+02  5.4935170312972434e+02  5.5880992759400976e+02  1.9866991427054597e+01  2.3916704817445588e+01  2.0426302938040820e+02  2.0576087669044728e+02  2.9185886346545271e+02  2.9686011155100726e+02  2.9344086221402989e+02  2.9843253485862249e+02  1.0803802924903131e+02  1.1279639361118375e+02  1.0953730956420959e+02  1.1428119142219647e+02  4.7301327842774776e+02  4.7826754740702501e+02  4.7467458121325859e+02  4.7991952758810493e+02  1.3125899792606305e+02  1.2644228191706236e+02  1.2969748352903216e+02  1.2490084098429624e+02  5.3333932207892963e+02  5.3162226724054949e+02  4.9837665145455588e+02  4.9311077796165677e+02  4.9667356423183418e+02  4.9143288513722518e+02  6.8130485598918568e+01  6.3397376463693206e+01  6.6596226275407801e+01  6.1884030599428549e+01  4.5314719517956604e+01  4.9990386456251279e+01  4.6789806068549169e+01  5.1449884534163751e+01  1.6322846324968430e+02  1.6165667722749532e+02  3.2530387670507713e+02  3.2686254197011084e+02  3.7080970260867707e+02  3.6729608659299703e+02  3.6571455628375293e+02  3.7243371683313660e+02  4.1714022018574246e+02  4.2069686743620048e+02  4.2240399600688028e+02  4.1544587721231056e+02  5.7976773511883289e+02  5.8350797207725429e+02  5.8516050086827613e+02  5.7809563508215604e