<?xml version="1.0"?>
<VTKFile type="UnstructuredGrid"  version="0.1"  >
<UnstructuredGrid>
<Piece  NumberOfPoints="2690" NumberOfCells="4864">
<Points>
<DataArray  type="Float64"  NumberOfComponents="3"  format="ascii">-5.001880032150869 22.00039365579009 0  -5.60467070708676 21.26289838105344 0  -5.00184149628482 21.50042609850673 0  -5.001799151626574 21.00039686307138 0  -5.604706867450923 21.76290530479848 0  -6.207536783629216 21.52535285620094 0  -9 21.99999999996945 0  -8.39714939155351 21.26258250415341 0  -9 21.49999999997139 0  -9 20.99999999997333 0  -8.397155832109226 21.76258202585353 0  -7.794305550381046 21.5251630349165 0  -9 32.9999999999446 0  -8.397291380717096 32.26258117646215 0  -9 32.49999999994358 0  -9 31.99999999994255 0  -8.397297830813036 32.7625812825718 0  -7.794589534903462 32.52516164939693 0  -5.002822907331311 33.00042614884894 0  -5.522105232329095 32.29677990231821 0  -5.002782516825059 32.50048264417761 0  -5.002739284078394 32.00041278889055 0  -5.522142308920539 32.79679077622022 0  -6.041464675707633 32.59309410950551 0  -5.004626539273898 54.0004085324487 0  -5.607103462017742 54.7378889588972 0  -5.60706796507577 54.23790594519239 0  -6.209506235711985 54.47534417851522 0  -5.004666385507353 54.50043661362356 0  -5.004705748354684 55.0004115659356 0  -9 54.99999999998974 0  -8.470549741318044 54.29618366623004 0  -9 54.49999999998872 0  -9 53.99999999998769 0  -8.470555246501416 54.7961820212696 0  -7.941106084174877 54.59236455683922 0  -9 39.99999999995897 0  -8.39740082666273 40.73757997344745 0  -8.397394379294033 40.23758004199273 0  -7.794794889686797 40.47515893963356 0  -9 40.49999999996 0  -9 40.99999999996102 0  -5.003508485366462 41.00037798682548 0  -5.579385718211111 40.26822544994753 0  -5.003468544128479 40.50043872169249 0  -5.003427789238288 40.00042639655157 0  -5.579422028905615 40.76821894336542 0  -6.155339607173662 40.53599070147237 0  -9 55.99999999999179 0  -8.422407203014931 56.74339943122541 0  -8.422401740784052 56.24339840803326 0  -7.844809211828463 56.48679675721352 0  -9 56.49999999999282 0  -9 56.99999999999384 0  -5.004796468842773 56.00039070010006 0  -5.582445270731136 56.74371624284215 0  -5.582409793609756 56.24371461711184 0  -6.160018935028899 56.48699042092458 0  -5.004838562441583 56.50044973717115 0  -5.004877770428146 57.00041268917819 0  -7.438937892653459 43.00022334766957 0  -6.591843759795624 43.10851915887886 0  -7.20066538192627 43.33759831533514 0  -6.962396327233098 43.67497365230587 0  -6.830112986048402 42.77114177328158 0  -6.221281959979284 42.54206013624589 0  -6.565056579435737 49.00042134234516 0  -7.412043566640121 48.89210175310356 0  -6.803295488993127 48.6630433553369 0  -7.041537874264979 48.32566414942983 0  -7.173801374215979 49.22947886514161 0  -7.782540209978695 49.45853944701936 0  -6.564899457053329 46.00039576379977 0  -7.411941208632254 45.8920853795647 0  -6.803153824185848 45.66301331603852 0  -7.041411671312101 45.32563290748522 0  -7.173683626161095 46.22946554361752 0  -7.782461754479271 46.45853379116228 0  -6.562865016002516 7.00041102454541 0  -7.410614511033773 6.892097216944958 0  -6.801318574635505 6.663032790180173 0  -7.039775602862837 6.325654652647451 0  -7.172157757448557 7.229475327530356 0  -7.781444480503113 7.458539280435983 0  -7.438502987958818 30.0002207454279 0  -6.591172803108247 30.10851351022561 0  -7.200164095637842 30.33758967642809 0  -6.961828670047616 30.67495728160633 0  -6.829508443070159 29.7711432818968 0  -6.220507779193523 29.54206791032485 0  -6.562711145759119 4.000391355516989 0  -7.410522153111244 4.108425746096141 0  -6.801211101030953 4.337693676618983 0  -7.039707658653105 4.674994645336656 0  -7.17202581389394 3.771123925671892 0  -7.781345668750055 3.541859155162606 0  -6.563021144138844 10.0004148144964 0  -7.410723575585503 10.10844142114487 0  -6.801491037243175 10.33771187313797 0  -7.039957492543576 10.6750089131173 0  -7.172256906852985 9.771144750285064 0  -7.781498642595328 9.541874246799562 0  -6.56317756272909 13.00041823064815 0  -7.410818231400552 12.89210302951168 0  -6.801600414173074 12.66304012582016 0  -7.040026716076347 12.32566215849011 0  -7.172392151406444 13.22948164702672 0  -7.781600751356889 13.45854381927047 0  -6.563334335035713 16.00042471505499 0  -7.410920427734903 15.89210487104193 0  -6.801741790872496 15.66304705794817 0  -7.040152716738834 15.32566836723711 0  -7.172509704507338 16.2294820267551 0  -7.781679110449686 16.45854176438387 0  -6.563490896523099 19.00037973890097 0  -7.411029947310156 19.10841416675214 0  -6.801914910125958 19.33767004334299 0  -7.040335440170662 19.67496275710057 0  -7.172609200936423 18.77112026794521 0  -7.781733486890806 18.5418596480153 0  -6.563908103809026 27.0003652110235 0  -7.411301995597993 27.10840501576397 0  -6.802291258494985 27.33766358106527 0  -7.040670934531764 27.67496250618606 0  -7.172922075969096 26.77110383431654 0  -7.781942068558988 26.54184582062055 0  -8.269428140179276 19.09401267225997 0  -8.025582257427608 18.81793552790697 0  -8.390863208592217 18.27093093732406 0  -8.634709787060789 18.54700807779728 0  -9 17.99999999998495 0  -8.269553219692824 27.09400807362477 0  -8.025749087577211 26.8179269956095 0  -8.390967501147786 26.27092254664101 0  -8.634772329055833 26.54700396347309 0  -9 25.99999999995395 0  -8.269378229326922 15.90622518922656 0  -8.025527226332551 16.18238370435726 0  -8.39084308812105 16.7292699675434 0  -8.634693397337417 16.45311193044325 0  -9 16.99999999998883 0  -5.732975472997873 30.09438303369287 0  -5.976740081714595 29.81822490560241 0  -5.6114977081521 29.27132313806044 0  -5.367731790104103 29.54749984063168 0  -5.002478312831255 29.00039290954317 0  -8.26933124794375 12.90622506444748 0  -8.025464557077514 13.18238435772723 0  -8.390803911188288 13.72927208372249 0  -8.634669904134601 13.45311272485381 0  -9 13.99999999999401 0  -8.26928728186399 10.09402543276819 0  -8.025394401347699 9.817949858595799 0  -8.390745798350888 9.270937054815557 0  -8.634639370823407 9.547012633454267 0  -9 8.99999999999857 0  -8.269194966020333 4.094018015469099 0  -8.025271643049635 3.817938923436651 0  -8.390669956237362 3.270928993246276 0  -8.634593643598558 3.547008171512557 0  -9 2.999999999998668 0  -8.269237609110979 6.906222154872157 0  -8.02533961028934 7.182380638885001 0  -8.390725761595696 7.729269761118206 0  -8.634623053267436 7.453111319068868 0  -9 7.999999999999485 0  -8.269847576255167 45.90621670272984 0  -8.026153220601904 46.18237479023768 0  -8.39123441996122 46.72926760633403 0  -8.634928072690323 46.45310955851974 0  -9 46.99999999997333 0  -8.269894615816835 48.90622352725926 0  -8.026215968946216 49.18238170496384 0  -8.391273630105852 49.72926878859114 0  -8.634951589623114 49.45311118931132 0  -9 49.99999999997949 0  -5.733885661127005 43.0943878091496 0  -5.977582247074075 42.81822369454345 0  -5.612441473025028 42.27130971305863 0  -5.368743634866291 42.54749447432562 0  -5.003591529745735 42.00037720124343 0  -5.727802370411885 23.91681040244127 0  -5.976455874627209 24.18450362552523 0  -5.613619886441882 24.72638913977907 0  -6.225106363059988 24.45219809000652 0  -5.364967788560992 24.45871480283089 0  -5.002142562810766 25.00039225745802 0  -8.274682225786401 52.08378680387739 0  -8.026190621274187 51.81609131066013 0  -8.388844514593428 51.27419954568132 0  -7.777696182125401 51.54839693455082 0  -8.637336925980101 51.54189501378704 0  -9 50.99999999998153 0  -5.728795150889831 38.08415761373418 0  -5.977338303678614 37.81637653755874 0  -5.614528749072457 37.27457913763961 0  -6.225884481243142 37.54859706310038 0  -5.365984167787803 37.54238250510423 0  -5.003162724605818 37.00035951502079 0  -5.728573419795552 34.91680641771976 0  -5.977168403172115 35.184496838245 0  -5.614418105835847 35.72637754616076 0  -6.22576037241438 35.45218847490312 0  -5.365824298414264 35.45870872241294 0  -5.003085311467798 36.0003751750841 0  -7.884988832489385 50.50035855305693 0  -7.831341916192639 51.0243782405813 0  -8.442497385962138 50.75017823062982 0  -6.118616542629807 36.50038966444934 0  -6.172250998544006 37.02449086588285 0  -5.560888819935704 36.75044487612131 0  -6.172187980832172 35.9762866825253 0  -5.560852654868237 36.25044114253086 0  -5.978332232661056 25.26038901387076 0  -6.101718326388154 24.85629449295571 0  -5.490237440004195 25.13046289283333 0  -8.028034170320172 25.74595690362166 0  -7.90498706806692 26.14390135002308 0  -8.51401840849176 25.87297851495207 0  -6.94384221282819 34.37619045452962 0  -6.584797077930698 34.91419158334713 0  -6.84158084716673 35.23870135062214 0  -7.200626447594167 34.70070341748295 0  -7.457407086401034 35.02521568535117 0  -7.059858748770911 52.62438383194707 0  -7.418773346452641 52.08639246803521 0  -7.162086383864536 51.76188890090574 0  -6.80317223623893 52.29988142359462 0  -6.546482159593808 51.97538019350455 0  -6.944029498401344 38.62438188640375 0  -6.584961179364452 38.08649173132454 0  -6.841697414365993 37.7619050551139 0  -7.20076524160814 38.29979857976572 0  -7.457504581274965 37.97521447453006 0  -6.943357617457775 23.37619268011433 0  -6.584227794908785 23.91419666651537 0  -6.841072051116325 24.23870819053623 0  -7.200202342191574 23.70070692276542 0  -7.457043479893698 24.02522005349536 0  -7.884346425521539 17.50018514599304 0  -7.833039380717136 18.02102298691009 0  -8.442176200124582 17.75009147853572 0  -7.833013342641101 16.97936367339824 0  -8.44217022491409 17.25009317314289 0  -7.884131447283906 8.500189592718293 0  -7.832814469698465 9.021031954329043 0  -8.442068702755357 8.750094842028874 0  -7.931303906115564 2.415760268760021 0  -7.856323548419897 2.978809199817296 0  -8.46565479792549 2.707880705303623 0  -7.832788527269967 7.979364539491018 0  -8.442062751175779 8.250094662358791 0  -7.833765103840911 49.9794492353328 0  -8.442491429698485 50.25017987681638 0  -6.029241538272631 41.59348177128539 0  -6.125262618186477 42.0677725566000
[...]
<PointData  Scalars="f_29"> 
<DataArray  type="Float64"  Name="f_29"  format="ascii">1.2236285439147248e+02  1.1822318245005810e+02  1.1955186954549420e+02  1.1674373555658990e+02  1.2101731986973691e+02  1.1969131998059633e+02  1.2236841951928879e+02  1.1822626293842482e+02  1.1955688233896275e+02  1.1674902242220199e+02  1.2102000026351270e+02  1.1969318693979515e+02  1.8361380530659150e+02  1.7946964829893554e+02  1.8079998153134423e+02  1.7799027518612399e+02  1.8226498089818148e+02  1.8093798707109130e+02  1.8359827863990532e+02  1.7966177509997959e+02  1.8079973075073437e+02  1.7800386930011246e+02  1.8245055911021856e+02  1.8131536368549914e+02  3.0055960547914339e+02  3.0471092060069424e+02  3.0191140129049182e+02  3.0324163317499966e+02  3.0337111987397293e+02  3.0619253187870191e+02  3.0618342806478557e+02  3.0224507872130266e+02  3.0338507168453992e+02  3.0058561401712535e+02  3.0503901150250641e+02  3.0390098406881270e+02  2.2254411078465307e+02  2.2669094309892139e+02  2.2389401993250695e+02  2.2522209422439676e+02  2.2535958150550354e+02  2.2817087089989104e+02  2.2816359442293901e+02  2.2406293883017045e+02  2.2535993317373865e+02  2.2255082974904647e+02  2.2685962082356338e+02  2.2556339823472598e+02  3.1174867994015989e+02  3.1592022700021448e+02  3.1312321587587070e+02  3.1448186147303886e+02  3.1454998533883696e+02  3.1736708813087415e+02  3.1175183221364796e+02  3.1592141821509438e+02  3.1312475826078781e+02  3.1448286221677870e+02  3.1455197383864510e+02  3.1736856551137862e+02  2.3930413615986561e+02  2.3990740399802903e+02  2.4118311513944207e+02  2.4306239008740826e+02  2.3802803771721474e+02  2.3675307764857618e+02  2.7272263092273499e+02  2.7211993132725962e+02  2.7084383361963000e+02  2.6896511232616911e+02  2.7399877774350000e+02  2.7527381608867302e+02  2.5601669277523285e+02  2.5541166590312616e+02  2.5413733023434341e+02  2.5225777218826232e+02  2.5729081546420582e+02  2.5856475672581848e+02  3.8906012133752824e+01  3.8302774273775682e+01  3.7030770398371786e+01  3.5155613747524683e+01  4.0178144998414488e+01  4.1449423268364384e+01  1.6686477879549992e+02  1.6746819772006816e+02  1.6874304445569936e+02  1.7062197341073809e+02  1.6559038516940743e+02  1.6431589433595187e+02  2.2233821233919706e+01  2.2834455733874112e+01  2.4108198467519678e+01  2.5982615261495983e+01  2.0959743721627834e+01  1.9686561372217248e+01  5.5581812925129377e+01  5.6184372792420049e+01  5.7457111389623208e+01  5.9332296212345049e+01  5.4309012657072742e+01  5.3037351904761415e+01  7.2257919347680343e+01  7.1655252307273543e+01  7.0382496884388928e+01  6.8507169589894602e+01  7.3530675667069218e+01  7.4802746021458560e+01  8.8936680182655010e+01  8.8334981413186057e+01  8.7060949036819679e+01  8.5185310652189415e+01  9.0210733317748804e+01  9.1483625972223365e+01  1.0562325308392955e+02  1.0622721424782132e+02  1.0750089171051479e+02  1.0937908554098422e+02  1.0435005799481854e+02  1.0307751422401185e+02  1.5016893399215573e+02  1.5077170529906462e+02  1.5204604380389839e+02  1.5392354880773902e+02  1.4889439976153906e+02  1.4762000038937504e+02  1.0614845630954794e+02  1.0461355973949129e+02  1.0157796547765916e+02  1.0311008303479107e+02  1.0008804407962236e+02  1.5069321905462047e+02  1.4915677305201410e+02  1.4611659875625418e+02  1.4765033292707014e+02  1.4461960097723252e+02  8.8413334447409980e+01  8.9948177097545027e+01  9.2984796663469311e+01  9.1449223078238518e+01  9.4469882707318718e+01  1.6738844234123536e+02  1.6585252005710703e+02  1.6281284809258744e+02  1.6434593037234430e+02  1.6131664261902935e+02  7.1733292170361509e+01  7.3267720886977443e+01  7.6303065800257230e+01  7.4771279420625149e+01  7.7796153254560849e+01  5.6106575581114200e+01  5.4572399322227852e+01  5.1538671949189798e+01  5.3070031086641954e+01  5.0049501153992892e+01  2.2755833696562487e+01  2.1221355158290645e+01  1.8184631663110032e+01  1.9719700051488044e+01  1.6697131391163705e+01  3.8379447869717495e+01  3.9914208471525356e+01  4.2949466089975346e+01  4.1414216802637789e+01  4.4433781705315276e+01  2.5548976148078791e+02  2.5702691636230662e+02  2.6006761938442691e+02  2.5853316308269126e+02  2.6156329434496354e+02  2.7219838977929692e+02  2.7373580135002555e+02  2.7677755260287779e+02  2.7523939651809053e+02  2.7826522811314112e+02  2.3982889931362732e+02  2.3829147494252877e+02  2.3525099309685612e+02  2.3678531446841106e+02  2.3375748360655280e+02  1.3300680997157212e+02  1.3449645472819969e+02  1.3750773148724576e+02  1.3598628829442256e+02  1.3602055718804237e+02  1.3902240759003683e+02  2.8990690809053137e+02  2.8841560550609518e+02  2.8540343226132728e+02  2.8692351010531331e+02  2.8689171332214903e+02  2.8389308592379103e+02  2.1189924205034015e+02  2.1040863056462845e+02  2.0739845006092065e+02  2.0891740883588668e+02  2.0888572231202099e+02  2.0588928325680135e+02  1.9425426205299715e+02  1.9574547790013921e+02  1.9875791219883203e+02  1.9723684296551011e+02  1.9726608896480863e+02  2.0026327920307747e+02  2.8108063702700554e+02  2.8400346038325841e+02  2.8247565994827949e+02  2.0307697897354251e+02  2.0599865786211993e+02  2.0447181969403783e+02  2.0015526584740871e+02  2.0167910290605622e+02  1.4048471665046000e+02  1.3823477508525056e+02  1.3976186164153182e+02  1.4318980643552345e+02  1.4540557942758451e+02  1.4389660168364756e+02  1.9124930916719208e+02  1.9424360374104771e+02  1.9605098502637458e+02  1.9305674328558555e+02  1.9486415707720377e+02  2.9291692542234694e+02  2.8991907091608562e+02  2.8811021873907822e+02  2.9110752683721830e+02  2.8929819205312873e+02  2.1490565206945251e+02  2.1191067329166785e+02  2.1010313495930279e+02  2.1309789339609631e+02  2.1129014113856829e+02  1.3000030479495166e+02  1.3299366119232306e+02  1.3479926663217827e+02  1.3180615234220400e+02  1.3361161603980096e+02  9.7279715380528700e+01  1.0017995372844391e+02  9.8672708670731609e+01  9.4380007792407369e+01  9.5883764553096469e+01  4.7242867240081239e+01  5.0141555959427635e+01  4.8634896995324297e+01  1.3422633709829444e+01  1.6556371176759495e+01  1.5051491988992375e+01  4.4344545962234506e+01  4.5847230387221202e+01  2.7817554927288700e+02  2.7968192467999910e+02  2.3146669781915054e+02  2.3411085849186452e+02  2.3260362612701010e+02  1.3731709228614571e+02  1.3665189793279455e+02  1.3546408690118071e+02  2.8484553199522202e+02  2.8588433219459097e+02  2.8707178833358859e+02  2.0685176045598033e+02  2.0788431762682757e+02  2.0907094968263809e+02  1.9931526394303918e+02  1.9827629078888910e+02  1.9708963213380187e+02  1.5984543146218249e+02  1.6208132350570494e+02  1.6057289440402005e+02  2.4326016361889990e+02  2.4000667368593551e+02  2.4316148034045102e+02  2.6876861694287129e+02  2.7202099491278568e+02  2.6886652155244263e+02  2.5205947345660800e+02  2.5531219383665282e+02  2.5215833008292429e+02  3.4957592923370719e+01  3.8203198123944887e+01  3.5056527162435557e+01  2.6178737224075011e+01  2.2933030961780073e+01  2.6080710794148782e+01  1.7086417303370547e+02  1.6758967837694891e+02  1.7074373405492562e+02  5.9529439144515045e+01  5.6283601737216465e+01  5.9430968553666098e+01  6.8309909070523432e+01  7.1556135851656833e+01  6.8408444778322476e+01  8.4989260273200728e+01  8.8236226777540736e+01  8.5086952264828611e+01  1.0962114038189561e+02  1.0634905784974548e+02  1.0950085190070656e+02  1.5412131794598548e+02  1.5087077326690536e+02  1.5402256668440555e+02  1.4580340039432966e+02  1.4671149482108581e+02  1.4798655972369269e+02  1.0103703248955942e+02  1.0205709248269309e+02  1.0333022036481752e+02  9.3481923553827684e+01  9.2482995381744416e+01  9.1209201117310997e+01  1.6244382077008515e+02  1.6337973231624207e+02  1.6465439950745514e+02  7.6739171516084681e+01  7.5771077378239056e+01  7.4498484125845295e+01  5.1038995926544253e+01  5.2037880993231681e+01  5.3310526356066326e+01  1.8419429626076635e+01  1.9052723787523483e+01  2.0326860450956911e+01  4.3447955319586519e+01  4.2448924670543200e+01  4.1176820097027203e+01  2.3487036877552356e+02  2.3581147521537588e+02  2.3708775357378852e+02  2.7727550003140959e+02  2.7627489081495952e+02  2.7499893198547079e+02  2.6050500557806538e+02  2.5953497690227920e+02  2.5826079622722892e+02  2.2851473662261208e+02  2.2981461607887641e+02  3.0897041829849780e+02  3.0610647944592478e+02  3.0757185982472680e+02  3.0896868336512995e+02  3.0643485826239095e+02  3.0757450444573925e+02  3.1172539076195187e+02  3.1035767481615602e+02  3.1172666849870416e+02  3.1035900830703741e+02  7.8624518121461220e+00  1.1476702952222757e+01  8.6970829165406478e+00  9.5313304333693303e+00  1.0641214278110903e+01  3.2981475696570533e+02  3.2982964524101737e+02  3.3196136305251611e+02  3.2984416033175847e+02  3.3194694520370717e+02  3.3407914177546684e+02  3.2981468394913946e+02  3.2982973222939307e+02  3.3196158042324993e+02  3.3194698938664368e+02  3.3407914177546684e+02  3.2115811614028223e+02  3.1782012834011510e+02  3.1925686248795392e+02  3.2115864390642224e+02  3.1782102903591999e+02  3.1925785576357526e+02  4.3047312609330097e+00  4.3182378141526421e+00  2.1665160320181283e+00  4.3325873083968043e+00  2.1524004422179059e+00  0.0000000000000000e+00  1.2423956741131325e+02  1.2217176856427530e+02  1.2464984898438465e+02  1.2176249955083759e+02  1.2383251775098053e+02  1.8548361448786170e+02  1.8341498936871631e+02  1.8589103983084001e+02  1.8300812665083211e+02  1.8507902258809690e+02  2.2067117891284374e+02  2.2274101156632290e+02  2.2026072370311906e+02  2.2315064370944972e+02  2.2107855764227750e+02  2.9909456696197691e+02  3.0116821523580427e+02  3.0038183448924451e+02  2.9831079719500565e+02  2.9752304949460063e+02  4.2519400463195627e+00  4.2918585869345556e+00  2.1667738038004338e+00  2.1259175173910161e+00  0.0000000000000000e+00  1.1520957617504254e+02  1.1745067029023654e+02  1.1598121722331987e+02  1.7645490598911789e+02  1.7869665426046214e+02  1.7722709330552911e+02  2.2964278028160530e+02  2.2743228067850748e+02  2.2890224222616519e+02  3.0610728031361083e+02  3.0897041952499393e+02  3.0897041125764332e+02  3.1172605574114107e+02  3.0897001501167267e+02  3.1172658544118229e+02  3.0643515826000311e+02  2.2825407364438891e+02  2.3120460041821016e+02  2.3094409814575437e+02  1.1854667828373937e+02  1.1911928411711618e+02  1.2159917900985765e+02  1.1911838143172427e+02  1.2217109963767625e+02  1.7941247165711937e+02  1.8017444655065313e+02  1.8265250892871759e+02  1.8036344231350074e+02  1.8360300117188237e+02  3.0232529295412513e+02  3.0278414338903866e+02  2.9992366508047604e+02  2.2636936830985113e+02  2.2596628118772264e+02  2.2865702971042327e+02  2.2291078419681810e+02  2.2331412649150619e+02  2.2579644636447472e+02  3.1398394278510159e+02  3.1423365381130520e+02  3.1147710849561929e+02  3.1423311922731239e+02  3.1667497552446588e+02  3.1642536747711091e+02  3.1886605263298310e+02  3.0311308973827033e+02  3.0564761872960122e+02  3.1667544332906959e+02  1.2455435677045703e+02  1.2212311954510641e+02  1.2460061413507883e+02  1.8579799513164187e+02  1.8355683656148094e+02  1.8584351374886219e+02  2.2035708867583813e+02  2.2295919949371691e+02  2.2031043276833120e+02  9.9159295485966013e+01  9.5379978726217857e+01  4.9141921185549862e+01  1.5922266060814289e+01  4.5344478071083273e+01  2.7917720964300048e+02  3.0044086231277242e+02  2.9804001129757631e+02  2.9855553351490107e+02  3.0122771084169955e+02  9.7279379044778452e+01  9.5380482514839557e+01  9.7279690548892859e+01  9.9158259709799196e+01  4.7243406799205523e+01  4.5345543064589833e+01  4.7243202725150866e+01  1.3894265734029759e+01  1.6157047576555161e+01  1.3658841922432288e+01  4.9141310827979368e+01  2.8107915291062244e+02  2.7917714548852445e+02  2.8108003469204567e+02  1.1339274585263294e+02  1.1687918371358336e+02  1.1596919715278746e+02  1.1430220667150374e+02  1.7463723710770870e+02  1.7793479963242848e+02  1.7702452936784422e+02  1.7554696042544495e+02  2.2800490993000537e+02  2.3029234597876462e+02  2.3316833391713590e+02  2.3290764320794406e+02  3.2635998481213903e+02  3.2269584104954464e+02  3.2529770433597406e+02  3.2423570816685691e+02  3.2375972447166947e+02  3.2636005407836484e+02  3.2269604305088876e+02  3.2529776747862428e+02  3.2375989780903024e+02  3.2001084386773448e+02  3.2001046806549112e+02  7.9723772023003576e+01  7.7262514217186663e+01  7.8768541313491696e+01  2.6349425532135820e+02  2.6102879575239092e+02  2.6253732001250273e+02  2.8296400502579621e+02  2.0119511952193244e+02  2.0496534370914202e+02  2.8296238384770322e+02  2.0307691791235385e+02  2.0119598733021303e+02  2.0307697321255060e+02  2.0496442143189427e+02  1.4182104289307622e+02  1.4449668395706615e+02  1.4381237965208305e+02  1.4250522372705723e+02  1.6686557590524470e+02  1.6408907543173225e+02  1.6712691278119820e+02  8.8933972511009046e+01  8.8673616570477023e+01  9.1705682232239468e+01  1.0562653256605859e+02  1.0285412276858094e+02  1.0588746272783368e+02  1.5017076232348677e+02  1.4739331457989454e+02  1.5043202910430884e+02  2.2234770959540278e+01  1.9462701707378333e+01  2.2495407046524736e+01  3.8899362913298752e+01  3.8639207428389923e+01  4.1670531362257229e+01  5.5585468568826386e+01  5.2814212739591085e+01  5.5846127296923179e+01  7.2254564551090994e+01  7.1993944385622598e+01  7.5027502939492294e+01  2.5601219391000319e+02  2.5575100006720635e+02  2.5878985862726620e+02  2.7271990675499592e+02  2.7245910742760708e+02  2.7549630582424322e+02  2.3930640706676613e+02  2.3652884983909516e+02  2.3956775116561468e+02  1.1667767128735380e+02  1.1410079681990943e+02  1.1480684106499187e+02  1.7775436544192320e+02  1.7536687700107851e+02  1.7609531971041127e+02  1.5793540211228799e+02  1.5613235478727856e+02  1.5814344684746300e+02  1.5592415762906523e+02  1.5772762692499532e+02  2.4745542787507478e+02  2.4546048782941622e+02  2.4766018179965309e+02  2.4525475756129939e+02  2.4725035711495732e+02  2.4786506456840618e+02  2.4985967612505655e+02  2.5006535737934357e+02  2.4807046315110296e+02  1.6114467176946454e+02  1.5899407008881434e+02  1.6029365695301874e+02  1.1724983938500826e+02  1.7870519876433457e+02  1.1712492074358893e+01  1.2310248305655263e+02  1.8434851708502009e+02  2.9982558089045966e+02  2.2180926757190457e+02  1.1578189269735957e+02  1.7705035172089990e+02  1.3890082197817571e+02  1.3956889118793345e+02  1.4115319601550547e+02  1.9075780478032721e+02  1.9399719717531804e+02  1.9100319710474642e+02  2.9340759432651777e+02  2.9016517652650634e+02  2.9316298353619800e+02  2.1533167655152317e+02  2.1212445750224853e+02  2.1511912157195803e+02  1.2957575465062109e+02  1.3278089997229932e+02  1.2978760537417955e+02  6.3919584106793721e+01  6.6114821747347733e+01  6.3919660970019365e+01  6.6114832947709729e+01  6.3919495235669686e+01  6.1724459894701234e+01  6.1724312251900727e+01  3.0568380740651442e+01  3.2763340440150905e+01  3.0568982399636873e+01  3.2762855692978292e+01  3.0567876438143735e+01  2.8373805255538684e+01  2.8373186076584755e+01  3.2155182349305619e+02  1.3347322928501430e+02  1.3324081008263016e+02  1.3624910281319808e+02  2.8944042952966299e+02  2.8666365071476639e+02  2.8967308676005018e+02  2.1143360618208101e+02  2.0865792850880865e+02  2.1166592791890966e+02  1.9471916996997237e+02  1.9448718314710860e+02  1.9749471671848352e+02  1.6154269554906878e+02  1.5984305049486102e+02  1.5963526344862652e+02  2.5095276021756800e+02  2.4930607149139584e+02  2.4910200496485069e+02  2.4436841139829758e+02  2.4601454622061104e+02  2.4621904451998699e+02  8.1005374505585834e+01  7.8231217793901152e+01  7.8872161967692904e+01  8.0364853664250134e+01  2.6477834292197457e+02  2.6199930825002599e+02  2.6264158693974440e+02  2.6413654684130330e+02  0.0000000000000000e+00  0.0000000000000000e+00  2.1664078019277166e+00  3.3407914177546684e+02  3.3407914177546684e+02  3.3196158680105970e+02  3.3407914177546684e+02  0.0000000000000000e+00  1.2346040623851358e+02  1.8470075139708237e+02  2.9957162781010652e+02  2.2145932040128460e+02  3.2808780526775092e+02  3.2810161940635493e+02  3.2808769607893885e+02  3.2810171226568707e+02  1.6919638532750188e+01  1.4320500650095072e+01  1.6802467202914205e+01  1.6695362919143623e+01  1.4440502859590991e+01  1.1959943697402437e+01  1.2706502301356909e+02  1.2711277819910374e+02  1.8827794810901975e+02  1.8832444495890647e+02  2.1784440921094219e+02  2.1779599953009000e+02  2.9598062619053491e+02  2.9546581257118402e+02  1.1221280524497297e+02  1.1150713673232711e+02  1.7347861145297730e+02  1.7275104303079740e+02  1.1099349550591835e+01  1.1534515182899066e+01  1.3895239006964827e+01  6.0831058068238999e+00  6.0978466293269360e+00  8.2357405432382933e+01  8.2996850503634391e+01  2.6613234117072159e+02  2.6677296658959244e+02  7.5862016915358730e+00  5.9187636500698275e+00  5.9595014451407051e+00  8.1552230061097035e+01  8.4185836068169351e+01  8.3393814925762001e+01  2.6532574525154922e+02  2.6796379097213440e+02  2.6717039187901423e+02  1.2839907660670579e+02  1.2652444904216202e+02  1.2611564246452581e+02  1.8971592009293656e+02  1.8780342463497792e+02  1.8739725496120451e+02  2.1644052539333322e+02  2.1835067118254722e+02  2.1875972543058865e+02  2.9462359702927841e+02  2.9607352237841224e+02  2.9685871859077520e+02  1.1299339543452382e+02  1.1040075804443862e+02  1.1116833873385652e+02  1.7426053968344598e+02  1.7164484072150967e+02  1.7241504887688285e+02  1.0877477544407059e+01  8.0992430630580969e+00  8.3350531236643075e+00  2.6714516996822556e+02  2.6424421616016627e+02  2.6306075191106868e+02  2.6134357131095771e+02  2.6596186228537636e+02  4.7243759379196717e+01  4.8754421145566575e+01  5.0265113095952280e+01  4.5732777098813365e+01  4.4222499589169864e+01  9.9998439680543910e+01  9.7126511193390357e+01  9.5767160990752828e+01  9.4255258919653215e+01  9.8639067948787300e+01  6.1161480850372783e+01  6.3903339528699277e+01  6.5282380443944874e+01  6.6645278470380902e+01  6.2540617432186089e+01  2.7812346458072650e+01  3.0553535742246648e+01  3.1931838815324031e+01  3.3294851039049192e+01  2.9190701394934695e+01  8.3368069607449755e+01  7.9290268164042487e+01  8.2186805421106911e+01  8.0471624884397812e+01  7.7575339950059472e+01  1.1048424475257089e+02  1.1193913864113796e+02  1.1284601844526625e+02  1.7191095056597632e+02  1.7327474026903468e+02  1.7418215345641090e+02  2.3435830984144121e+02  2.3265067032429334e+02  2.3200140592564250e+02  1.3850204188065624e+02  1.4016208470892738e+02  1.4084492975248182e+02  1.5548893250203011e+02  1.5681699986378862e+02  1.5766652717884028e+02  1.4266761861293793e+02  1.4333455940495332e+02  1.4484938854476871e+02  2.0018433232050623e+02  2.0457250618389355e+02  2.0163035996205554e+02  2.0312600527225661e+02  2.0606753511479980e+02  2.8398784863065697e+02  2.8101849160607225e+02  2.7956430990442078e+02  2.7804974057543188e+02  2.8253374129263329e+02  1.0746100472672925e+01  1.2927808185439950e+01  1.0788430559642670e+02  1.0866418641216571e+02  1.5240725975399539e+02  1.5492707818806244e+02  1.5321333664066898e+02  1.5572673455986029e+02  5.7817890667849149e+01  6.0333747711198477e+01  5.8622046638482345e+01  6.1128859814444311e+01  2.4154436650287502e+02  2.4406570276211701e+02  2.4234950536108101e+02  2.4485868146932145e+02  7.0021657081369526e+01  6.7505356523247144e+01  6.9217241295956129e+01  6.6709835124505730e+01  2.7048381767178580e+02  2.6967909222488498e+02  2.5377477158926669e+02  2.5125403219850162e+02  2.5296951469703032e+02  2.5046109976603498e+02  3.6668681270274540e+01  3.4152764094337705e+01  3.5863905110789766e+01  3.3357293403448324e+01  2.4467148950586143e+01  2.6982658028353708e+01  2.5271093971243864e+01  2.7777560585701007e+01  8.6701625294506030e+01  8.5898271004732337e+01  1.6912597924659349e+02  1.6990655351796377e+02  1.9170896164155286e+02  1.8995739268495865e+02  1.8916744516453230e+02  1.9250627543855029e+02  2.1444439297353014e+02  2.1616448062105891e+02  2.1698679919077486e+02  2.1361522694871400e+02  2.9245274159806155e+02  2.9420730336414800e+02  2.9499143560970316e+02  2.9165671134252568e