<?xml version="1.0"?>
<VTKFile type="UnstructuredGrid"  version="0.1"  >
<UnstructuredGrid>
<Piece  NumberOfPoints="2690" NumberOfCells="4864">
<Points>
<DataArray  type="Float64"  NumberOfComponents="3"  format="ascii">-5.04859665750153 22.01066186664669 0  -5.643106101199524 21.27326492116993 0  -5.047630872638107 21.51153589575408 0  -5.046509229035556 21.01072333444574 0  -5.644059219386241 21.7734579378203 0  -6.239540953550607 21.53453300262066 0  -9 21.99999999996945 0  -8.403970179459677 21.26472800778572 0  -9 21.49999999997139 0  -9 20.99999999997333 0  -8.404139549393751 21.76471554623184 0  -7.808119506044648 21.52940325922228 0  -9 32.9999999999446 0  -8.407684584212516 32.26469337379205 0  -9 32.49999999994358 0  -9 31.99999999994255 0  -8.407853912971369 32.76469654099296 0  -7.815547412891075 32.52936789857854 0  -5.073247129391653 33.01152847105475 0  -5.582135750516987 32.30776493679261 0  -5.072236097542166 32.51305806079827 0  -5.071054353909718 32.01115816910314 0  -5.583119517385215 32.80805932810157 0  -6.093011111497516 32.60293868428975 0  -5.120856991603279 54.01100079218033 0  -5.707100016444373 54.7479881603162 0  -5.706160971114262 54.24844623174561 0  -6.291340726927108 54.48427899182053 0  -5.121944267341336 54.51180582781786 0  -5.122935557914119 55.01111639022893 0  -9 54.99999999998974 0  -8.486016513869934 54.29799602571609 0  -9 54.49999999998872 0  -9 53.99999999998769 0  -8.486164552905221 54.79795065999675 0  -7.972211426832088 54.59591586483657 0  -9 39.99999999995897 0  -8.410560005945833 40.73965899330285 0  -8.410390662406106 40.23966127321699 0  -7.82094291605557 40.47929088918419 0  -9 40.49999999996 0  -9 40.99999999996102 0  -5.091250460057426 41.01020852307413 0  -5.653221983821838 40.27880308318199 0  -5.090249380509198 40.51185829110256 0  -5.089155580489717 40.011493808622 0  -5.654177166491942 40.77862989344089 0  -6.217153522401445 40.54518831314721 0  -9 55.99999999999179 0  -8.440012199821735 56.74532610228562 0  -8.43986572301657 56.245297534899 0  -7.879884852512569 56.49059426833664 0  -9 56.49999999999282 0  -9 56.99999999999384 0  -5.12538488870722 56.01051155040316 0  -5.686886783629328 56.75386773874918 0  -5.685957394807708 56.25382342640402 0  -6.24637346599927 56.49581424967348 0  -5.126540142075968 56.51215879199829 0  -5.127527858769592 57.01114828489981 0  -7.474938128863752 43.00603591040531 0  -6.647528950655269 43.11759831042141 0  -7.242487693800333 43.34439684657448 0  -7.010125719638711 43.68276639725461 0  -6.879891005081722 42.77917162759067 0  -6.28468960502929 42.55230970755034 0  -6.629080536850481 49.01138872582069 0  -7.453701411516466 48.89918788679323 0  -6.860642686537296 48.67294718941488 0  -7.092302262354774 48.3344718031351 0  -7.222049708523746 49.23760655328056 0  -7.814858643058836 49.46390603532978 0  -6.624964657209824 46.01069828083722 0  -7.451019034370715 45.8987425745778 0  -6.856940829849401 45.67213289231464 0  -7.089010282930698 45.33362261634697 0  -7.218956038617343 46.23724513415245 0  -7.812792672921281 46.46375175922064 0  -6.571813732752661 7.011080713689068 0  -7.416357981599788 6.899043349776857 0  -6.808994234264526 6.672633131043871 0  -7.046268291507167 6.334188222523973 0  -7.179090441618714 7.237486734842051 0  -7.78621346814181 7.463884461322027 0  -7.463519976822266 30.00596778108857 0  -6.629911916482801 30.11744729131248 0  -7.229330013079708 30.3441657847882 0  -6.995230418840787 30.68232708040156 0  -6.864014515709639 29.77921385166776 0  -6.264351805697518 29.55251862407816 0  -6.567874654603084 4.010550920496177 0  -7.413993599858533 4.115054601506646 0  -6.806242447096357 4.346948848505472 0  -7.044528523762638 4.683311876045488 0  -7.175712966714623 3.778669818082795 0  -7.783683691067072 3.546858250640113 0  -6.575838582403264 10.01117712570761 0  -7.419168352344738 10.11547320608641 0  -6.813439030828128 10.34743526641602 0  -7.05095476296806 10.68369378253675 0  -7.181645792842085 9.779225375874269 0  -7.787609166938159 9.547260772424977 0  -6.57987358954979 13.01127421429437 0  -7.421609136460105 12.89919921119986 0  -6.816260493682203 12.67283028817647 0  -7.052740375107168 12.33438998706306 0  -7.185132895129655 13.23765597248193 0  -7.790241440927761 13.4640059713013 0  -6.583928421162127 16.01144678728881 0  -7.424257098826499 15.89924958356325 0  -6.81991708718675 15.673015463595 0  -7.0560006260304 15.33455646294585 0  -7.188180834799959 16.23766746891921 0  -7.792276729938169 16.46395271001495 0  -6.588056377805422 19.01025133618078 0  -7.427143682579751 19.11475055820959 0  -6.824486253866683 19.34632643575338 0  -7.060820762074544 19.68246611473263 0  -7.19080161786806 18.7785779391918 0  -7.793708832513558 18.54687482588056 0  -6.598975076552759 27.00986813905511 0  -7.434264852595366 27.11451047241301 0  -6.834324965760951 27.34615923236913 0  -7.06958677211763 27.68246573979026 0  -7.198999674256497 26.77814338641055 0  -7.7991780597665 26.5465082714712 0  -8.276830443114271 19.09692116382501 0  -8.035307998579535 18.82188111545127 0  -8.396760666127966 18.27346721591424 0  -8.638301463883174 18.54850731243364 0  -9 17.99999999998495 0  -8.280105603311426 27.09680038272164 0  -8.039679237816584 26.82165566129584 0  -8.399497125411482 26.27324432099811 0  -8.639941342867244 26.54839819445561 0  -9 25.99999999995395 0  -8.275515611407808 15.90949509228988 0  -8.033858282994879 16.1867299692842 0  -8.396230759971514 16.73195218529336 0  -8.637869749120437 16.45472998882867 0  -9 16.99999999998883 0  -5.785507210341131 30.10693969971497 0  -6.024889108926967 29.82971606547994 0  -5.664446481373024 29.28409668397187 0  -5.425046100232883 29.56182193559362 0  -5.064171931038016 29.01064712776621 0  -8.274297185430452 12.90949083638326 0  -8.032231888487166 13.18674616223856 0  -8.395211551751387 13.73200763411601 0  -8.637259249654365 13.45475059023788 0  -9 13.99999999999401 0  -8.273163651142335 10.0972597347858 0  -8.030423214319011 9.822260696198509 0  -8.393713445818321 9.273628628616581 0  -8.63647210693045 9.548627744961115 0  -9 8.99999999999857 0  -8.270792259373259 4.097061610229232 0  -8.027271416620584 3.821968827025898 0  -8.3917682342438 3.273413653707734 0  -8.635298698294953 3.548508682382818 0  -9 2.999999999998668 0  -8.271883965066481 6.909412843853641 0  -8.029011482684801 7.186646532668284 0  -8.393197156390823 7.731945412126393 0  -8.636051681212827 7.454712925825355 0  -9 7.999999999999485 0  -8.287819949839138 45.90927426167196 0  -8.050268658868207 46.18650060156843 0  -8.406488327990187 46.73189528203926 0  -8.644021375688933 46.45467003863722 0  -9 46.99999999997333 0  -8.289053579847229 48.90946062730809 0  -8.051917494247878 49.18668933720209 0  -8.407523170641138 49.73192795346902 0  -8.644640696252251 49.4547147912802 0  -9 49.99999999997949 0  -5.809415112354992 43.10706930229488 0  -6.047011195292106 42.82968516688908 0  -5.68924501732929 42.28373949191624 0  -5.451633707670315 42.5616838021978 0  -5.093417852173056 42.01021490261237 0  -5.769535529515927 23.92948579269556 0  -6.01545245260397 24.19607038383572 0  -5.658294712187181 24.73917011421231 0  -6.261289332080195 24.46269013600615 0  -5.412432626224418 24.47309076145593 0  -5.055413036409706 25.01059968206668 0  -8.294987260498198 52.086659750627 0  -8.053307813172774 51.82001059056609 0  -8.405679654917734 51.27672521887766 0  -7.811551972500423 51.55339153679466 0  -8.647380610538049 51.54337373573402 0  -9 50.99999999998153 0  -5.795540364173193 38.09669469878519 0  -6.038567506338418 37.82773501447065 0  -5.682100031935758 37.28701773697065 0  -6.281673644792752 37.55881247916831 0  -5.439052100564894 37.5565829352918 0  -5.082121479531579 37.00974044299565 0  -5.789710879318474 34.92938272717582 0  -6.034100698810793 35.19589107210655 0  -5.679190005324601 35.73885804089537 0  -6.27841066075048 35.462433201799 0  -5.434848034743548 35.47293007123285 0  -5.080092843635301 36.01011966797069 0  -7.915227484951172 50.50512567123372 0  -7.863373238375519 51.02927205994857 0  -8.457693214567682 50.75253474440382 0  -6.174928038612122 36.51052723112944 0  -6.228312811808616 37.0346034999006 0  -5.62855624774553 36.7620226121385 0  -6.226655252501526 35.98641143465144 0  -5.627595829946413 36.26190697739493 0  -6.019028625595128 25.27153669282512 0  -6.140135613771541 24.8671366978299 0  -5.537274498659242 25.14301442301437 0  -8.041374167725456 25.74964472190733 0  -7.920248795231701 26.14807614184895 0  -8.520721195564175 25.87482410113263 0  -6.981655351552477 34.38367546402228 0  -6.629922404692174 34.92311462395489 0  -6.882288603973111 35.24661515128112 0  -7.2340348623223 34.70726373957319 0  -7.486319644841602 35.03083313104688 0  -7.114757120790429 52.63185154826585 0  -7.463042384850703 52.09267832057582 0  -7.213210703033003 51.76934290905858 0  -6.864936820438407 52.30854852745934 0  -6.615019799190763 51.98527624378148 0  -6.986577518438953 38.63180418466602 0  -6.634235935762038 38.09536963001559 0  -6.885352686317398 37.76978612622279 0  -7.237682700496854 38.30631388007805 0  -7.488882089892716 37.9808008349719 0  -6.968976204923079 23.38373251633697 0  -6.615023516250074 23.92324834771103 0  -6.868968655141837 24.2467970068463 0  -7.222935631142436 23.70735555385984 0  -7.476801074613436 24.03094870903425 0  -7.894679584155166 17.50499393460154 0  -7.844178224009976 18.02595027646603 0  -8.447418505379465 17.75246793510945 0  -7.843492841395113 16.98447914658066 0  -8.447261162945368 17.25251301566631 0  -7.889113332839301 8.505110000378389 0  -7.838346789158395 9.026186397390152 0  -8.444632899041384 8.752556142014178 0  -7.93283193929537 2.4200366486726 0  -7.858226829390901 2.98343395007353 0  -8.466488110105592 2.710033320936338 0  -7.837678238995656 7.984500028465626 0  -8.444479538795933 8.252551403412362 0  -7.86505835141089 49.98452216976231 0  -8.45753371633332 50.2525793517568 0  -6.09549485334557 41.60343800667326 0  -6.190117306527019 42.07791957485669 0  -5.594
[...]
<PointData  Scalars="f_29"> 
<DataArray  type="Float64"  Name="f_29"  format="ascii">3.0940999772570615e+02  2.9880989576949082e+02  3.0220730401086507e+02  2.9501609994560005e+02  3.0596921399162403e+02  3.0255922008091585e+02  3.0934681160513355e+02  2.9874687265232302e+02  3.0214280490540125e+02  2.9494877930630088e+02  3.0590656984743623e+02  3.0252146109424496e+02  4.6744717929321672e+02  4.5669782508147819e+02  4.6013993362545159e+02  4.5284447917846200e+02  4.6395916385081125e+02  4.6052547178557222e+02  4.6747770447161929e+02  4.5725627871635601e+02  4.6020704349541660e+02  4.5295280452812898e+02  4.6450191025304918e+02  4.6154460381933455e+02  7.7543885125835197e+02  7.8651369122846836e+02  7.7904543852199083e+02  7.8258374266260500e+02  7.8293749623851772e+02  7.9046819175312896e+02  7.9037674867261660e+02  7.7987301734213850e+02  7.8290559957627829e+02  7.7543339244698655e+02  7.8733337228525750e+02  7.8430619046777269e+02  5.6908038247833201e+02  5.7996825469946680e+02  5.7263246930136449e+02  5.7612968394254972e+02  5.7646321037844586e+02  5.8383666939786747e+02  5.8389595604291185e+02  5.7313512762082235e+02  5.7653587277687689e+02  5.6916452822741803e+02  5.8047716231416166e+02  5.7706437858842173e+02  8.0525052982327679e+02  8.1641470649382779e+02  8.0893596348527626e+02  8.1258124078787728e+02  8.1274071105156759e+02  8.2027190212964831e+02  8.0531951517396601e+02  8.1646569897409506e+02  8.0899021443252082e+02  8.1261434225336995e+02  8.1280332921483057e+02  8.2033598393282080e+02  6.1311993988757808e+02  6.1471799142174075e+02  6.1806788180579861e+02  6.2301946959762847e+02  6.0977305023191298e+02  6.0642767512636908e+02  7.0136473723339304e+02  6.9974959837988854e+02  6.9638044866973007e+02  6.9139846997591860e+02  7.0473658526378961e+02  7.0810495681907503e+02  6.5717443511818124e+02  6.5556159030739377e+02  6.5221209267597885e+02  6.4725012399588343e+02  6.6052698979350203e+02  6.6387795534290035e+02  9.7418821573716457e+01  9.5883559475708125e+01  9.2699080978445508e+01  8.7980866587924766e+01  1.0060611709567510e+02  1.0379043704992904e+02  4.2402342142452471e+02  4.2559688615493258e+02  4.2889335188385644e+02  4.3376779832522874e+02  4.2073227815479436e+02  4.1744152325038812e+02  5.5569665870682179e+01  5.7060437895406999e+01  6.0262660561701082e+01  6.4956780097405442e+01  5.2369907375156949e+01  4.9171248922636217e+01  1.3944442201665194e+02  1.4094605456873808e+02  1.4417563992716464e+02  1.4890747613284910e+02  1.3621703036936646e+02  1.3299245452367458e+02  1.8162861861952956e+02  1.8008115843029739e+02  1.7687146982026590e+02  1.7211583015209450e+02  1.8484054150819583e+02  1.8805016641403802e+02  2.2397732413187597e+02  2.2242813012221853e+02  2.1920052661408681e+02  2.1442599609608644e+02  2.2720749616844276e+02  2.3043411811965967e+02  2.6652637631996419e+02  2.6805655486167268e+02  2.7132409438539577e+02  2.7612502174142645e+02  2.6326398576003885e+02  2.6000123391951956e+02  3.8087557366046514e+02  3.8241936556747106e+02  3.8571814229444283e+02  3.9056295825378982e+02  3.7758080413950472e+02  3.7428428692168535e+02  2.6783676988196146e+02  2.6392026670022096e+02  2.5615746507025545e+02  2.6006421465503263e+02  2.5233797513442570e+02  3.8219981619275143e+02  3.7824229442693149e+02  3.7039580743354776e+02  3.7434381105483129e+02  3.6652351912499688e+02  2.2260648679223769e+02  2.2651939414810991e+02  2.3424177483950749e+02  2.3032462421094797e+02  2.3801062829548619e+02  4.2539100860026804e+02  4.2141812856951447e+02  4.1356590373218233e+02  4.1751189143942196e+02  4.0971145387189279e+02  1.8025582490783003e+02  1.8415207916213842e+02  1.9183836108229835e+02  1.8794664090880417e+02  1.9560907315658778e+02  1.4072677392317681e+02  1.3686060840048205e+02  1.2919502774243310e+02  1.3305182144157999e+02  1.2542260429952630e+02  5.6844887990991658e+01  5.3008394021461022e+01  4.5398986722266422e+01  4.9234688063482572e+01  4.1664767417264144e+01  9.6055016606667053e+01  9.9921950867935522e+01  1.0754967632284765e+02  1.0367927809510374e+02  1.1127061376420065e+02  6.5574715217848416e+02  6.5981155627828105e+02  6.6783321070250565e+02  6.6377312188167343e+02  6.7177083586404251e+02  6.9993745040064118e+02  7.0402027283460848e+02  7.1207989294108370e+02  7.0799282128383322e+02  7.1601668533194083e+02  6.1451185328853444e+02  6.1047168006591369e+02  6.0249011113130359e+02  6.0650267561306782e+02  5.9858011053154746e+02  3.3669411068237116e+02  3.4052617974736404e+02  3.4828647613381924e+02  3.4435758075661869e+02  3.4443922687561042e+02  3.5220252745958999e+02  7.4698190691003094e+02  7.4301857290900352e+02  7.3499470088482076e+02  7.3905373619093677e+02  7.3894776702307126e+02  7.3095979019914341e+02  5.4123852110519147e+02  5.3734452903119950e+02  5.2949261014101705e+02  5.3344823255589245e+02  5.3335509692661333e+02  5.2556712765862619e+02  4.9517799073223676e+02  4.9906760914601642e+02  5.0693803135063666e+02  5.0295685598294665e+02  5.0302564997405261e+02  5.1088849809227690e+02  7.2351744113925884e+02  7.3128754020065367e+02  7.2721211471597235e+02  5.1821363048814669e+02  5.2583237159665657e+02  5.2186862324351637e+02  5.1057857100061517e+02  5.1457337595310935e+02  3.5594863019532983e+02  3.5014962630617111e+02  3.5410069780855304e+02  3.6286431980408992e+02  3.6857504599315860e+02  3.6467419000060403e+02  4.8734608842933915e+02  4.9514746878635736e+02  4.9985563585281551e+02  4.9204949482338822e+02  4.9675414484652975e+02  7.5502258244117229e+02  7.4703316671046662e+02  7.4222386794592478e+02  7.5020857883801489e+02  7.4539695874456334e+02  5.4910063810804036e+02  5.4126677739145714e+02  5.3653841365200628e+02  5.4436682940836863e+02  5.3963426719321126e+02  3.2896553234077953e+02  3.3665715707656057e+02  3.4129544454969874e+02  3.3359960101717320e+02  3.3823406264095996e+02  2.4520131665693935e+02  2.5260296612028722e+02  2.4874276466659663e+02  2.3781178938572236e+02  2.4162896446451816e+02  1.1837681256892517e+02  1.2568681941443052e+02  1.2187242981896306e+02  3.3500671935828912e+01  4.1338544049939905e+01  3.7561558231443144e+01  1.1107797929276110e+02  1.1484633830811239e+02  7.1580521096879795e+02  7.1978970005995359e+02  5.9255644271306437e+02  5.9949192487323307e+02  5.9555094540343566e+02  3.4776992036786680e+02  3.4606519856989325e+02  3.4299985154680081e+02  7.3354343176125167e+02  7.3629817543440208e+02  7.3946932898491445e+02  5.2804340039099304e+02  5.3074613797662732e+02  5.3383664946659781e+02  5.0836966051565065e+02  5.0566482329666979e+02  5.0255952274335124e+02  4.0589425540131293e+02  4.1166763103341049e+02  4.0778679236462125e+02  6.2355367022677308e+02  6.1498236417811802e+02  6.2328813794108601e+02  6.9086037521043897e+02  6.9947861116252011e+02  6.9112953895756789e+02  6.4670783992341831e+02  6.5529007248504001e+02  6.4697917548049872e+02  8.7464474019744699e+01  9.5623723344652177e+01  8.7723492801217446e+01  6.5431632141895975e+01  5.7299329895956468e+01  6.5195377020242191e+01  4.3440690524542174e+02  4.2591475628200118e+02  4.3408995116593087e+02  1.4938454240210484e+02  1.4118637695233531e+02  1.4914718967155395e+02  1.7159543511790596e+02  1.7981963685227126e+02  1.7185638890052161e+02  2.1390885218164479e+02  2.2216765867413977e+02  2.1416756998699017e+02  2.7672737536639346e+02  2.6836013530548524e+02  2.7642916751082527e+02  3.9105797395407490e+02  3.8266778760495083e+02  3.9081182057890265e+02  3.6961611235530620e+02  3.7194975136869351e+02  3.7524543937301007e+02  2.5480583376180888e+02  2.5740329550241984e+02  2.6066515452733177e+02  2.3554095625947409e+02  2.3298855464209160e+02  2.2975784965803126e+02  4.1258869810350035e+02  4.1501604928097385e+02  4.1830445024208109e+02  1.9297972006009525e+02  1.9051549562148506e+02  1.8730283775515082e+02  1.2796843147741055e+02  1.3048021962680272e+02  1.3370521322150591e+02  4.6014646545588782e+01  4.7592944718654124e+01  5.0791682800100936e+01  1.0883840311839838e+02  1.0631542134579009e+02  1.0312690256331392e+02  6.0147401454123496e+02  6.0395116216695453e+02  6.0729629412021427e+02  7.1343297566509170e+02  7.1077001824637421e+02  7.0739743493419166e+02  6.6901912953490205e+02  6.6644902630639342e+02  6.6309518023066391e+02  5.8481062506015485e+02  5.8822442633906030e+02  7.9787659773055043e+02  7.9023211049896133e+02  7.9414056665244163e+02  7.9783915989790046e+02  7.9107223976306636e+02  7.9410392915950558e+02  8.0520981936523333e+02  8.0154310961686554e+02  8.0524589088030723e+02  8.0159502031899422e+02  1.9614162515482548e+01  2.8645388964941588e+01  2.1702987597016897e+01  2.3789548151552935e+01  2.6552857851887655e+01  8.5364364569623399e+02  8.5368741734596904e+02  8.5941113529953634e+02  8.5372909910082092e+02  8.5937021005918950e+02  8.6509906356459931e+02  8.5364648795786923e+02  8.5369024473387640e+02  8.5941302517988345e+02  8.5937220324079340e+02  8.6509906356459931e+02  8.3044039669063068e+02  8.2150887646209549e+02  8.2534166760933044e+02  8.3046271859042326e+02  8.2154038229353182e+02  8.2538326155817845e+02  1.0731477637191466e+01  1.0770147549433624e+01  5.4032456302562455e+00  1.0808143475860005e+01  5.3653619223031148e+00  0.0000000000000000e+00  3.1417806373858542e+02  3.0888302693574951e+02  3.1524312232799520e+02  3.0781937092896504e+02  3.1312060986978838e+02  4.7234015685552447e+02  4.6696914865900703e+02  4.7341128937079134e+02  4.6589888434157672e+02  4.7127575649551972e+02  5.6419802427167053e+02  5.6963039277541884e+02  5.6313344083200843e+02  5.7069186797320378e+02  5.6525409353345719e+02  7.7151536747567422e+02  7.7705175891874535e+02  7.7493988517711193e+02  7.6941487958025084e+02  7.6730362514973740e+02  1.0602121299522388e+01  1.0705434187777639e+01  5.4040298454788704e+00  5.2995897207312304e+00  0.0000000000000000e+00  2.9107955054531686e+02  2.9682112839947138e+02  2.9306472833976204e+02  4.4888018307648224e+02  4.5470267513558878e+02  4.5087386757416891e+02  5.8772418844008860e+02  5.8192604078517797e+02  5.8576905665605636e+02  7.9022560985755320e+02  7.9787388639966457e+02  7.9786560282931418e+02  8.0522183973734820e+02  7.9785491485264367e+02  8.0523809145989537e+02  7.9108404149065734e+02  5.8411503548307087e+02  5.9185924801015449e+02  5.9116445633984506e+02  2.9960548569492755e+02  3.0106218072118378e+02  3.0742625929597313e+02  3.0108110369341972e+02  3.0890072533521783e+02  4.5658264818927222e+02  4.5855257578246795e+02  4.6499782196122470e+02  4.5906332166810961e+02  4.6747589772883191e+02  7.8011680371079785e+02  7.8135250770886512e+02  7.7370841019077693e+02  5.7915899465910138e+02  5.7811197778989708e+02  5.8516261398704410e+02  5.7009321870251460e+02  5.7114302306868944e+02  5.7764650678199087e+02  8.1126584862513198e+02  8.1194124376493733e+02  8.0456481754686286e+02  8.1192474599670629e+02  8.1845422651591139e+02  8.1779443838811994e+02  8.2432186258321212e+02  7.8221187556308621e+02  7.8898955081936913e+02  8.1846935856596099e+02  3.1501625593900752e+02  3.0879067626632701e+02  3.1512788890985479e+02  4.7318683547099056e+02  4.6736701305049121e+02  4.7329808909782298e+02  5.6340172402883991e+02  5.7023154200201736e+02  5.6327350407775577e+02  2.5000544706747337e+02  2.4036806326082873e+02  1.2317446138446336e+02  3.9759524168061560e+01  1.1360460391018299e+02  7.1847223220961462e+02  7.7507768476568287e+02  7.6867397009355648e+02  7.7003793153853667e+02  7.7716959503765270e+02  2.4522086559309227e+02  2.4037979239920165e+02  2.4521227132620618e+02  2.5001282986615854e+02  1.1839980715298046e+02  1.1361809157672427e+02  1.1838937399058933e+02  3.4696248584745632e+01  4.0355660182588132e+01  3.4100309526465864e+01  1.2318369883485988e+02  7.2353427406466790e+02  7.1848237106759075e+02  7.2352702335992194e+02  2.8640241306546204e+02  2.9534690424113029e+02  2.9300290643759502e+02  2.8874455068208636e+02  4.4418472065176314e+02  4.5273371817063861e+02  4.5038271872874145e+02  4.4653507108354836e+02  5.8343809527482449e+02  5.8944183777800242e+02  5.9701282227147431e+02  5.9631993557530473e+02  8.4438158348990146e+02  8.3456464267764159e+02  8.4153677863943062e+02  8.3869288746141842e+02  8.3741123007345197e+02  8.4438098196581382e+02  8.3457191338202722e+02  8.4153745747058520e+02  8.3741876057399827e+02  8.2738928561491912e+02  8.2737708243436703e+02  2.0052955610483590e+02  1.9428673694078014e+02  1.9809199058094208e+02  6.7689999171900445e+02  6.7038566095508816e+02  6.7435778596028297e+02  7.2853216665605601e+02  5.1328601661067864e+02  5.2312794788286806e+02  7.2853839094032924e+02  5.1818781195705424e+02  5.1327855827073336e+02  5.1819932861125096e+02  5.2311583942974892e+02  3.5936240535789329e+02  3.6624043278663362e+02  3.6448946471122042e+02  3.6111275647859736e+02  4.2404137620268193e+02  4.1684955823918995e+02  4.2472139930653583e+02  2.2391197373199753e+02  2.2326009746124311e+02  2.3096880879702294e+02  2.6648528647346592e+02  2.5940182730648911e+02  2.6716188636663992e+02  3.8083549726598682e+02  3.7367307325189745e+02  3.8151871486279140e+02  5.5522114139869721e+01  4.8583387240823143e+01  5.6184682588522165e+01  9.7343251820781035e+01  9.6699484312561822e+01  1.0431522133907343e+02  1.3939109169492403e+02  1.3239718173172679e+02  1.4005995951033876e+02  1.8155664070498992e+02  1.8090702365745204e+02  1.8858698808260010e+02  6.5710730280624739e+02  6.5642812644269429e+02  6.6444287179037178e+02  7.0130103723280104e+02  7.0062018597051770e+02  7.0866617767651462e+02  6.1314000353388292e+02  6.0583083778940841e+02  6.1383146063264064e+02  2.9480386910643824e+02  2.8820419150109149e+02  2.8999874512306479e+02  4.5228848609288070e+02  4.4609012036925634e+02  4.4799075534682515e+02  4.0091586320993713e+02  3.9626116991995860e+02  4.0146686480003552e+02  3.9571042351732888e+02  4.0036567620464052e+02  6.3460963410149100e+02  6.2934593785860511e+02  6.3513257380005132e+02  6.2881746072597548e+02  6.3409283865366217e+02  6.3565749921354393e+02  6.4091900257541590e+02  6.4144638393135676e+02  6.3618414649570161e+02  4.0923975298669819e+02  4.0367846916566566e+02  4.0702767201247775e+02  2.9625919764455358e+02  4.5476733636597277e+02  2.9241515035739496e+01  3.1123943054416122e+02  4.6936754457107747e+02  7.7347550244705633e+02  5.6716279859448377e+02  2.9248378191090205e+02  4.5047897713604613e+02  3.5185644465774874e+02  3.5356544101051577e+02  3.5765580994196131e+02  4.8607596359352686e+02  4.9450805912586117e+02  4.8671140937465196e+02  7.5631511185173611e+02  7.4768020447827962e+02  7.5567195760152003e+02  5.5022451741660507e+02  5.4182819920960890e+02  5.4966505227369646e+02  3.2788478628033465e+02  3.3611332046104366e+02  3.2842553231453240e+02  1.6048867121329747e+02  1.6604874449992801e+02  1.6050374809897798e+02  1.6603384111070801e+02  1.6047336943516373e+02  1.5494308727543907e+02  1.5492764546878124e+02  7.6446309499418263e+01  8.1961936253351283e+01  7.6460759174461344e+01  8.1947421758933530e+01  7.6431803659527347e+01  7.0944879256291259e+01  7.0930493751748642e+01  8.3150807228163706e+02  3.3789536224329072e+02  3.3730109843780809e+02  3.4503003568505648e+02  7.4572256347635710e+02  7.3833161237133197e+02  7.4635165459992152e+02  5.4002358424616421e+02  5.3276249041554718e+02  5.4063408649296230e+02  4.9639209507615794e+02  4.9579049105062973e+02  5.0362584628110164e+02  4.1023879605931234e+02  4.0585198363074051e+02  4.0530182144871543e+02  6.4383125916587107e+02  6.3948133670307084e+02  6.3895996877958578e+02  6.2643957158972205e+02  6.3078574396942270e+02  6.3131040612741094e+02  2.0380772229756778e+02  1.9675355174285741e+02  1.9839270079882922e+02  2.0217042541423845e+02  6.8031800827091570e+02  6.7295841680872604e+02  6.7466742648521006e+02  6.7861069095416315e+02  0.0000000000000000e+00  0.0000000000000000e+00  5.4038419753422504e+00  8.6509906356459931e+02  8.6509906356459931e+02  8.5941311941790059e+02  8.6509906356459931e+02  0.0000000000000000e+00  3.1222122447769044e+02  4.7034296789578480e+02  7.7273873977177573e+02  5.6630037801325784e+02  8.4901122953639504e+02  8.4905304902523460e+02  8.4901397421075251e+02  8.4905450332700605e+02  4.2278772685892307e+01  3.5789185953860780e+01  4.1996519781536271e+01  4.1736244366122015e+01  3.6080760644730354e+01  2.9873698490492192e+01  3.2144936179260122e+02  3.2156394353011854e+02  4.7963091523103981e+02  4.7974351232052067e+02  5.5681253220402641e+02  5.5667804146761728e+02  7.6317299447502467e+02  7.6180954012548045e+02  2.8335931184288955e+02  2.8156416164669650e+02  4.4119574851273978e+02  4.3929755631735952e+02  2.7712609760127680e+01  2.8813916435079197e+01  3.4714192713205250e+01  1.5170545246689224e+01  1.5212339425462464e+01  2.0722013271595233e+02  2.0885581876528747e+02  6.8388092267910247e+02  6.8558666962667860e+02  1.8931127644577700e+01  1.4764632845032608e+01  1.4868980790869951e+01  2.0515853525044758e+02  2.1185241868419237e+02  2.0982390805061127e+02  6.8173095767369239e+02  6.8871544594477666e+02  6.8659766888811009e+02  3.2484065624596008e+02  3.2004054006220173e+02  3.1897971222734327e+02  4.8334125980772308e+02  4.7837495838998996e+02  4.7730728447396598e+02  5.5310666894380176e+02  5.5811893958974576e+02  5.5918026485455437e+02  7.5958522542487606e+02  7.6344469916942876e+02  7.6554543045926857e+02  2.8534247857723506e+02  2.7870912895639873e+02  2.8066011475433737e+02  4.4323244753262122e+02  4.3644284653829089e+02  4.3845703345307516e+02  2.7136786213563273e+01  2.0200813086139640e+01  2.0782907172322826e+01  6.8659501225925430e+02  6.7892355957841073e+02  6.7578488448118037e+02  6.7125538955950776e+02  6.8345694206441249e+02  1.1842054908874415e+02  1.2221814650222773e+02  1.2603636225833094e+02  1.1460352910318164e+02  1.1080930608520397e+02  2.5217223644802536e+02  2.4484939473622148e+02  2.4137508003654065e+02  2.3753277396330441e+02  2.4869682164547740e+02  1.5354933204386879e+02  1.6048203974066425e+02  1.6396086002672021e+02  1.6742110634585910e+02  1.5702644374362595e+02  6.9560586050068622e+01  7.6439291003467787e+01  7.9890475787424535e+01  8.3323697795033112e+01  7.3010611950010315e+01  2.0982383113341828e+02  1.9946450921175816e+02  2.0681635828621307e+02  2.0247256290724732e+02  1.9512425197333593e+02  2.7896967860033044e+02  2.8268831806521894e+02  2.8502133982459401e+02  4.3709413655569517e+02  4.4064085600711974e+02  4.4298465452192750e+02  6.0011129869781269e+02  5.9563595241081430e+02  5.9391942185411961e+02  3.5080177815593999e+02  3.5508308900773704e+02  3.5682967550555310e+02  3.9462761834244628e+02  3.9804922749125666e+02  4.0025963567684141e+02  3.6156596063116882e+02  3.6326923709581956e+02  3.6717783751046704e+02  5.1061757631489655e+02  5.2208141576446349e+02  5.1440176049002139e+02  5.1829541552817955e+02  5.2597619189254954e+02  7.3128351015328508e+02  7.2339258915374478e+02  7.1951977559816396e+02  7.1550881217693632e+02  7.2740954020864001e+02  2.6830658482291991e+01  3.2287792111869393e+01  2.7228047616311039e+02  2.7426140484404345e+02  3.8662846394858326e+02  3.9312650690363370e+02  3.8869640232985262e+02  3.9517966335199463e+02  1.4505506718517188e+02  1.5140168237157602e+02  1.4707052903468747e+02  1.5339578364888661e+02  6.1903295959187153e+02  6.2568467412226357e+02  6.2114587539747993e+02  6.2777668293499028e+02  1.7592551177540116e+02  1.6954291465478866e+02  1.7387192278833106e+02  1.6751386287490612e+02  6.9539955069693724e+02  6.9325239742187557e+02  6.5122753912921542e+02  6.4456926095759320e+02  6.4908806203575580e+02  6.4246221962115783e+02  9.1759925647677662e+01  8.5428336513081632e+01  8.9722232776790989e+01  8.3416280029167865e+01  6.1137585138980569e+01  6.7433635497364335e+01  6.3138066857426331e+01  6.9412086092496537e+01  2.1825826657170128e+02  2.1620002911583865e+02  4.2989870500209554e+02  4.3191618334242474e+02  4.8854475687679650e+02  4.8400652893171963e+02  4.8196240767371580e+02  4.9062601758318624e+02  5.4789577690473561e+02  5.5241837752651804e+02  5.5458523974151024e+02  5.4572955842279873e+02  7.5375496817025862e+02  7.5843478604907500e+02  7.6051462388504058e+02  7.5164663935008900e