<?xml version="1.0"?>
<VTKFile type="UnstructuredGrid"  version="0.1"  >
<UnstructuredGrid>
<Piece  NumberOfPoints="2690" NumberOfCells="4864">
<Points>
<DataArray  type="Float64"  NumberOfComponents="3"  format="ascii">-5.105696157469809 22.02307125473307 0  -5.690135647360673 21.28576887694043 0  -5.103646252669455 21.52495637580264 0  -5.101131835014697 21.02315358109971 0  -5.692259610919995 21.78620484816017 0  -6.278722575079541 21.54561886373833 0  -9 21.99999999996945 0  -8.41231110308215 21.26732143442388 0  -9 21.49999999997139 0  -9 20.99999999997333 0  -8.412687237254787 21.7672948549263 0  -7.825023171245466 21.53452814412996 0  -9 32.9999999999446 0  -8.420505828387837 32.26724513346638 0  -9 32.49999999994358 0  -9 31.99999999994255 0  -8.420881024832175 32.76725281268625 0  -7.841407779119635 32.53444930511358 0  -5.160030829040607 33.0249087126578 0  -5.656167941361034 32.3210148957724 0  -5.157906754287026 32.5282350902319 0  -5.155171814843052 32.02410276196655 0  -5.658377491000401 32.82166083468427 0  -6.156617355885927 32.61482101630012 0  -5.266153182227528 54.02369264490385 0  -5.832254678078391 54.76007160850734 0  -5.830150810203346 54.26106972514035 0  -6.393740391693851 54.49498377902704 0  -5.26869639179431 54.52549731046268 0  -5.270802081136603 55.02388258799675 0  -9 54.99999999998974 0  -8.505358640158349 54.3001733637899 0  -9 54.49999999998872 0  -9 53.99999999998769 0  -8.505696113836585 54.80007112490856 0  -8.011126410254253 54.60017596250348 0  -9 39.99999999995897 0  -8.426881966942661 40.74216430875448 0  -8.426506455124549 40.24217029482079 0  -7.853372622120362 40.48426935835819 0  -9 40.49999999996 0  -9 40.99999999996102 0  -5.199930183807459 41.02196540361928 0  -5.744762398039544 40.29150726858087 0  -5.197817178137327 40.52558106224375 0  -5.195314121743522 40.02476875408118 0  -5.746886108384844 40.79113525883106 0  -6.293816146473071 40.55624715932934 0  -9 55.99999999999179 0  -8.462079855324504 56.7476373715989 0  -8.461747504484736 56.24757214468047 0  -7.923842735048079 56.4951448445572 0  -9 56.49999999999282 0  -9 56.99999999999384 0  -5.276370559278972 56.02258444056682 0  -5.817784018493985 56.76601222000062 0  -5.815729080984227 56.26591152848432 0  -6.354599406399238 56.50637351862065 0  -5.279071258693918 56.52626133235486 0  -5.281173253014994 57.02397414181406 0  -7.519634089529441 43.01307540352756 0  -6.716687359232004 43.12860408992418 0  -7.29441273958089 43.3526341410105 0  -7.069380777392638 43.69220890107533 0  -6.941707203458076 42.7889000270321 0  -6.363456202131105 42.56473726954481 0  -6.708595750210101 49.02474074047024 0  -7.505432483233553 48.90781939308701 0  -6.931831007304004 48.68501051622577 0  -7.155300262530933 48.34520245456502 0  -7.281988314325252 49.24750298646351 0  -7.855016376919417 49.4704410313719 0  -6.69950934215578 46.02323014820227 0  -7.499508128557946 45.90683536373584 0  -6.923684132801876 45.68321729287641 0  -7.148071224495764 45.34332468558206 0  -7.275133345233725 46.24670820666744 0  -7.850425830869423 46.4701002541492 0  -6.582434248528219 7.024006442687183 0  -7.423161286607245 6.907456051292863 0  -6.818074503861535 6.684262612990809 0  -7.053928521397205 6.344523683057663 0  -7.187319987620638 7.247189711215489 0  -7.791876431345565 7.470357677809651 0  -7.49433468308116 30.01292954533121 0  -6.677649404490198 30.12827326492863 0  -7.265268060986277 30.35212913252076 0  -7.036399606664161 30.6912459022018 0  -6.906517190431596 29.78899528322372 0  -6.318361358904151 29.56519415808745 0  -6.573970855968348 4.022844454002287 0  -7.418081122093149 4.12307732270171 0  -6.812161048429249 4.358147524176228 0  -7.050189679169775 4.693376779057234 0  -7.180063618344628 3.787803354115715 0  -7.786440015978861 3.552909654337599 0  -6.591160019558364 10.02420274150799 0  -7.429250337952722 10.12398600596606 0  -6.827706846706873 10.35920423544682 0  -7.064080499100485 10.69420767241946 0  -7.192858086296993 9.789008039095895 0  -7.794900651518073 9.553782485119152 0  -6.599910906129239 13.02442972432771 0  -7.434541198668835 12.90779656216868 0  -6.833825515599722 12.68469391386123 0  -7.067952520021558 12.34496494525677 0  -7.200416484386204 13.24755932741285 0  -7.80060501840202 13.47062312722919 0  -6.608733400466847 16.02480222481417 0  -7.440314810647195 15.90790814227629 0  -6.841781244019005 15.68509487720314 0  -7.07504952156864 15.34532643233562 0  -7.207067724073683 16.24758709032356 0  -7.805055744764867 16.47051118630601 0  -6.617923322548454 19.02222058238881 0  -7.44673874277296 19.12242991152263 0  -6.851966466152293 19.35681562501501 0  -7.085787991560032 19.69155182789563 0  -7.212895393891024 18.78761947496296 0  -7.808239692265978 18.55295526982477 0  -6.642024922759602 27.02139347276831 0  -7.462461572885259 27.12191334286991 0  -6.873655293139281 27.35645970432149 0  -7.105099708823816 27.69156022784601 0  -7.231018011205166 26.78667942113173 0  -7.820340423150053 26.55216069378703 0  -8.285829659027113 19.10044603417382 0  -8.047120854376898 18.82666399075447 0  -8.403909595418876 18.27654255814038 0  -8.642659283810069 18.5503250942036 0  -9 17.99999999998495 0  -8.293063770652889 27.10018577750533 0  -8.056783635365258 26.82617628718221 0  -8.409968873897148 26.2760586307541 0  -8.646287454328577 26.55008837901872 0  -9 25.99999999995395 0  -8.282905276684277 15.91345830340804 0  -8.043896598553365 16.19199791003875 0  -8.402731493250927 16.73520380903452 0  -8.641699282995996 16.456691473102 0  -9 16.99999999998883 0  -5.850286338710495 30.12216378018428 0  -6.084235758202365 29.84365590589097 0  -5.729682264304135 29.29962779642805 0  -5.495738987071099 29.57922805042822 0  -5.139878557173363 29.02309183305508 0  -8.280245754627353 12.91344710568006 0  -8.040343649349788 13.19203029810619 0  -8.400498467225177 13.7353216615614 0  -8.640363531455785 13.45673477165454 0  -9 13.99999999999401 0  -8.277789052894761 10.1011756117915 0  -8.036423851978208 9.82747993381385 0  -8.397251908456749 9.276887583780756 0  -8.638657691177057 9.550583267262951 0  -9 8.99999999999857 0  -8.272671488736624 4.100745341286587 0  -8.029626309939024 3.826846576199874 0  -8.393061988672459 3.276421421356635 0  -8.636128661469851 3.550324923723102 0  -9 2.999999999998668 0  -8.275017261893375 6.913276744548025 0  -8.033365456874186 7.19181265488698 0  -8.396133304968357 7.735185560703874 0  -8.637746884796153 7.456652434660723 0  -9 7.999999999999485 0  -8.310118825085775 45.91299054983372 0  -8.080189719121483 46.19151795549335 0  -8.425413555585306 46.73509326374248 0  -8.655303077106304 46.45656837144264 0  -9 46.99999999997333 0  -8.312845901669695 48.91340448671593 0  -8.083843629540075 49.19193632730381 0  -8.427719326746953 49.73516593605303 0  -8.656679269576045 49.45666798320203 0  -9 49.99999999997949 0  -5.903288013920182 43.12244960592303 0  -6.133281970694426 42.84359214337834 0  -5.784682837011143 42.29885132144055 0  -5.554707702636253 42.57893233302036 0  -5.204728142661594 42.02212962706437 0  -5.820808357934569 23.94485726194185 0  -6.06336097979592 24.21008829513601 0  -5.713199471464772 24.75461695420969 0  -6.305734794774536 24.47539890561974 0  -5.47081176199745 24.49047905406653 0  -5.120554900523266 25.02287233117424 0  -8.320300069477703 52.09014597778617 0  -8.087099726755707 51.82476947668903 0  -8.426642267420901 51.27979520623882 0  -7.853724807936624 51.55945907368805 0  -8.659891141946266 51.54517041589883 0  -9 50.99999999998153 0  -5.878272323090795 38.11190436545026 0  -6.114443060926694 37.8415224571968 0  -5.765807659741186 37.30215067832491 0  -6.350785660668748 37.57120471244751 0  -5.529641624687668 37.57386184085585 0  -5.179602646863497 37.02109507969961 0  -5.86533225174013 34.94463716791003 0  -6.104525118456404 35.20970119907667 0  -5.759333884231134 35.75393626294875 0  -6.343539724506007 35.47483882826408 0  -5.520290977802431 35.49013524725553 0  -5.175041428419492 36.02175481286623 0  -7.952843478790219 50.51092525113941 0  -7.903244795013366 51.03522194396196 0  -8.476601698291512 50.75540125554609 0  -6.244615219165195 36.52277195944114 0  -6.297725452621156 37.04684578154711 0  -5.712297327161065 36.77600030845569 0  -6.29404070473296 35.99864495666363 0  -5.710134501712199 36.27571833851278 0  -6.069011240935179 25.28502267100657 0  -6.187326373339951 24.88025658286159 0  -5.595053034877181 25.15817526407835 0  -8.057751335849199 25.75411365466534 0  -7.93898613394697 26.15313626943633 0  -8.528949542832903 25.87706079113003 0  -7.028387966301835 34.39274855943498 0  -6.685719621193144 34.93393300669248 0  -6.932631955276894 35.2562037026376 0  -7.275332916334828 34.71521505168378 0  -7.522067250318149 35.03763971420944 0  -7.183256515081654 52.640900199654 0  -7.51823113574097 52.10030623400366 0  -7.276913353427404 51.77839433851827 0  -6.941963094121928 52.31906269462434 0  -6.700447185030632 51.99729034228358 0  -7.039306255978705 38.64079087470986 0  -6.695291232648455 38.10613267433175 0  -6.939431787081655 37.77933842889194 0  -7.283425344431726 38.31420601814638 0  -7.527752246064474 37.98756814369467 0  -7.000409888612196 23.39287169831155 0  -6.652833121037675 23.93422220496784 0  -6.903220285630396 24.25659963407266 0  -7.250834022597706 23.71541378206959 0  -7.501050477517196 24.03789097174933 0  -7.90717464076571 17.51082421941163 0  -7.857669364540325 18.03192470319709 0  -8.453762360069398 17.75534957373173 0  -7.856146681194119 16.99068031782566 0  -8.453412632415533 17.25544698481162 0  -7.89504774006938 8.511068199291275 0  -7.844943852227704 9.032427611096917 0  -8.447687637825814 8.755536453299184 0  -7.934632867663456 2.42521485966982 0  -7.860471828331844 2.98903328378695 0  -8.467469700107868 2.712639493580268 0  -7.843495080465662 7.990718987043397 0  -8.447355344374298 8.255526339223135 0  -7.903963843896809 49.99069688185644 0  -8.476240070530229 50.25549975088195 0  -6.177737885236927 41.61544991029558 0  -6.270659450819119 42.090199
[...]
<PointData  Scalars="f_29"> 
<DataArray  type="Float64"  Name="f_29"  format="ascii">1.9578452160616391e+02  1.8897103934403196e+02  1.9115115843657824e+02  1.8652818582123325e+02  1.9357686154730780e+02  1.9137336918537738e+02  1.9568380424541445e+02  1.8887480212273803e+02  1.9104907910335908e+02  1.8642117243311839e+02  1.9348228356322559e+02  1.9131575124098870e+02  2.9833458769038958e+02  2.9131497126824991e+02  2.9355613743673899e+02  2.8878614963075552e+02  2.9606533514707576e+02  2.9382940563713453e+02  2.9840907671254223e+02  2.9172577782906427e+02  2.9365231548847021e+02  2.8891253338059113e+02  2.9646707426080917e+02  2.9452590028257083e+02  5.0311208878930847e+02  5.1058424197657996e+02  5.0554538950091251e+02  5.0792549165730355e+02  5.0817062866316076e+02  5.1325317593767682e+02  5.1314252653780864e+02  5.0605721388658964e+02  5.0809689145486936e+02  5.0305202686900191e+02  5.1109641518064001e+02  5.0906039952940722e+02  3.6522271015159845e+02  3.7243604799977010e+02  3.6758179133669722e+02  3.6990668979028726e+02  3.7010656600290889e+02  3.7498551985617621e+02  3.7508264675807192e+02  3.6795938058039468e+02  3.7020858421316160e+02  3.6532901053994152e+02  3.7282243732823241e+02  3.7055476889250349e+02  5.2320033635644927e+02  5.3076059583493827e+02  5.2570106417132899e+02  5.2817685767042030e+02  5.2826748208593074e+02  5.3336096183060044e+02  5.2329215728033603e+02  5.3083136358980096e+02  5.2577538154590172e+02  5.2822238815356945e+02  5.2835397607976324e+02  5.3344990490041789e+02  3.9442863098976835e+02  3.9549891961004329e+02  3.9771856848057257e+02  4.0101309719773667e+02  3.9221385604327338e+02  3.8999868581758540e+02  4.5328002159426097e+02  4.5218459071004389e+02  4.4993852513737170e+02  4.4660032253463874e+02  4.5553000808264437e+02  4.5777699972663629e+02  4.2375204330147534e+02  4.2266459167744949e+02  4.2044251736890203e+02  4.1713417529488515e+02  4.2597891162958325e+02  4.2820348011383265e+02  6.0878078712873481e+01  5.9899467554409568e+01  5.7909370809762592e+01  5.4942928284730833e+01  6.2872023460253239e+01  6.4863135258286277e+01  2.6999289342642629e+02  2.7102724076213360e+02  2.7317181525822531e+02  2.7635584997333370e+02  2.6785490477503748e+02  2.6571743202858653e+02  3.4646674000519162e+01  3.5567319217616166e+01  3.7579061608936385e+01  4.0512717985742619e+01  3.2638967701371847e+01  3.0631354776252302e+01  8.7358727536996270e+01  8.8291065040487453e+01  9.0343888713524592e+01  9.3329901241755820e+01  8.5309083182709045e+01  8.3261509598547804e+01  1.1406157173741549e+02  1.1306414520971187e+02  1.1103960553542476e+02  1.0801988178051297e+02  1.1608938829441749e+02  1.1811488003928903e+02  1.4099596393361537e+02  1.3999401783544619e+02  1.3794677306503323e+02  1.3490080571036339e+02  1.4304702062907563e+02  1.4509502688228031e+02  1.6820192826198581e+02  1.6917301090237001e+02  1.7127808644242486e+02  1.7435772085898600e+02  1.6610348980169059e+02  1.6400318446354476e+02  2.4194109694982825e+02  2.4293327642569062e+02  2.4508244631929165e+02  2.4822615366960898e+02  2.3979791823629486e+02  2.3765215160313920e+02  1.6901766671860273e+02  1.6651106490711507e+02  1.6152951098477158e+02  1.6402770080340588e+02  1.5907104337469860e+02  2.4277725380644520e+02  2.4021472322083793e+02  2.3512146070717495e+02  2.3767593025047287e+02  2.3260100127983736e+02  1.4009121287032326e+02  1.4259241801164322e+02  1.4751365744381943e+02  1.4500786433059025e+02  1.4990945885507267e+02  2.7089464895659319e+02  2.6830780727826470e+02  2.6320330344217450e+02  2.6575830079668111e+02  2.6070465302401038e+02  1.1315693017064980e+02  1.1563516566324451e+02  1.2050747675182049e+02  1.1803038170512976e+02  1.2288971409171774e+02  8.8134296708713080e+01  8.5698463434803330e+01  8.0852506542448609e+01  8.3280687428571071e+01  7.8460020912539747e+01  3.5417558619526964e+01  3.3024620695908794e+01  2.8264765752760376e+01  3.0655451219042469e+01  2.5923340608831516e+01  5.9990650143359353e+01  6.2426222513685069e+01  6.7215142840846241e+01  6.4775582741478459e+01  6.9544227201202332e+01  4.2277222055600788e+02  4.2548710679137724e+02  4.3083079774907395e+02  4.2811667375438299e+02  4.3344749291942787e+02  4.5229450795135301e+02  4.5503503840636239e+02  4.6043050834190001e+02  4.5768543658408134e+02  4.6306222670437501e+02  3.9536378055694558e+02  3.9268279499793755e+02  3.8739328473381352e+02  3.9004256027336265e+02  3.8480781499847245e+02  2.1335041137884392e+02  2.1582820212933345e+02  2.2085745151827493e+02  2.1830449497234332e+02  2.1835380891840481e+02  2.2340359769221104e+02  4.8388310989616821e+02  4.8122073703638142e+02  4.7581596999316173e+02  4.7855783145815758e+02  4.7846979175962974e+02  4.7308884659107429e+02  3.4686014256335807e+02  3.4429432301785062e+02  3.3912972561042778e+02  3.4172681119594654e+02  3.4165862232352038e+02  3.3655395999866738e+02  3.1654943052989421e+02  3.1910652010050148e+02  3.2429154823855055e+02  3.2166259731484627e+02  3.2170448225349219e+02  3.2690538441725221e+02  4.6811511965291248e+02  4.7333643449118938e+02  4.7058683615484557e+02  3.3171004162153451e+02  3.3671711194351576e+02  3.3412475882446614e+02  3.2668042133464684e+02  3.2932158278992290e+02  2.2581349017815702e+02  2.2205572854975287e+02  2.2462774316687600e+02  2.3025035278045962e+02  2.3395095964107281e+02  2.3141386190632028e+02  3.1140385140808860e+02  3.1652635091348196e+02  3.1961684214344723e+02  3.1448752187362766e+02  3.1757295152267119e+02  4.8931661227081918e+02  4.8393238459580431e+02  4.8070017671696752e+02  4.8607878869171242e+02  4.8284420506459435e+02  3.5204359604440356e+02  3.4687630168694648e+02  3.4375665445822278e+02  3.4891677105540606e+02  3.4579172651322096e+02  2.0835714313899172e+02  2.1332364996871982e+02  2.1631744870437819e+02  2.1134443851489110e+02  2.1433302699035036e+02  1.5452731748418623e+02  1.5926492888914723e+02  1.5678337095281847e+02  1.4980608468883059e+02  1.5223307412743020e+02  7.4042466971792535e+01  7.8652169991740990e+01  7.6235113342161441e+01  2.0849229549246640e+01  2.5740394313545220e+01  2.3373068626721974e+01  6.9447980370767311e+01  7.1807649471598907e+01  4.6294093341680008e+02  4.6560270440404400e+02  3.8081306307091302e+02  3.8540348139735744e+02  3.8280392542899767e+02  2.2050163324173838e+02  2.1940468755022331e+02  2.1741479628960386e+02  4.7486607274327707e+02  4.7671174941610434e+02  4.7885396013623756e+02  3.3816031457659517e+02  3.3994453138367948e+02  3.4197290022545167e+02  3.2521396008275008e+02  3.2343995787826691e+02  3.2139021725255327e+02  2.5821363135924651e+02  2.6196359904227256e+02  2.5945341521018980e+02  4.0137941302188608e+02  3.9567744353763743e+02  4.0119794524429255e+02  4.4622618099690897e+02  4.5199616655048118e+02  4.4641412959412150e+02  4.1675815489264045e+02  4.2247658508334007e+02  4.1694705653310780e+02  5.4604395617425340e+01  5.9728951607398962e+01  5.4775053879625467e+01  4.0796189340835667e+01  3.5710147766980185e+01  4.0655972741600728e+01  2.7678242013346124e+02  2.7123734573224436e+02  2.7657140536890643e+02  9.3614431690193925e+01  8.8434623376032334e+01  9.3473574664038708e+01  1.0767393946800871e+02  1.1289017549735821e+02  1.0784824958217386e+02  1.3455660859105504e+02  1.3982069967834784e+02  1.3472961873663726e+02  1.7473130352529691e+02  1.6936164881743099e+02  1.7454727901017083e+02  2.4853525096824089e+02  2.4308870372444159e+02  2.4838235789846186e+02  2.3463818409416643e+02  2.3614495146522091e+02  2.3828822327399064e+02  1.6068711299496044e+02  1.6234516577351212e+02  1.6444285935085276e+02  1.4836954581736850e+02  1.4673323259397279e+02  1.4468120205427320e+02  2.6255065799422624e+02  2.6413558289501754e+02  2.6626929015686233e+02  1.2126067897737205e+02  1.1968823941544881e+02  1.1765952302126038e+02  8.0105412181022601e+01  8.1683787662136794e+01  8.3729930745063413e+01  2.8671500653584836e+01  2.9652005207757622e+01  3.1657898302054456e+01  6.8052686282365499e+01  6.6458807760633050e+01  6.4463421587372451e+01  3.8670807479699550e+02  3.8835425756635163e+02  3.9056642233563753e+02  4.6136316386179647e+02  4.5957105865816675e+02  4.5731989603554251e+02  4.3164655347986394e+02  4.2992543461328262e+02  4.2769731804071893e+02  3.7568467396058514e+02  3.7794708755556752e+02  5.1825257862673539e+02  5.1309053911983563e+02  5.1572804779227840e+02  5.1820265660756945e+02  5.1363079752800900e+02  5.1566999339478650e+02  5.2318891189555222e+02  5.2070109366617294e+02  5.2323788698062890e+02  5.2077285703271548e+02  1.2199532040778980e+01  1.7828521724145165e+01  1.3504011087247001e+01  1.4806020387555561e+01  1.6520535442517616e+01  5.5601012792710060e+02  5.5604162375886335e+02  5.5993164439963903e+02  5.5607116548764702e+02  5.5990289461211557e+02  5.6379855070343933e+02  5.5601117495926223e+02  5.5604399259496950e+02  5.5993322025079908e+02  5.5990382619959792e+02  5.6379855070343933e+02  5.4026524067385435e+02  5.3421802307581345e+02  5.3680400203454053e+02  5.4029913932173054e+02  5.3426234953500864e+02  5.3686400244269419e+02  6.6688575983336555e+00  6.6968560447790493e+00  3.3594959111398501e+00  6.7223021454945497e+00  3.3338139854204027e+00  0.0000000000000000e+00  1.9882141560899299e+02  1.9541714551499038e+02  1.9951750892203322e+02  1.9472103186757604e+02  1.9812966462470010e+02  3.0156394757564436e+02  2.9805214252011467e+02  3.0227467983524036e+02  2.9734154667309423e+02  3.0085709556715705e+02  3.6201471831199626e+02  3.6561217062667629e+02  3.6131951753066653e+02  3.6630469412653127e+02  3.6270401127286357e+02  5.0045424696967854e+02  5.0419249519388944e+02  5.0275704812778434e+02  4.9902929600179988e+02  4.9759730412887069e+02  6.5907771192597275e+00  6.6577528199497191e+00  3.3601993664359546e+00  3.2931847602877338e+00  0.0000000000000000e+00  1.8399099972423556e+02  1.8768418810640495e+02  1.8527448933971579e+02  2.8621131287964585e+02  2.9001971099606817e+02  2.8750607824126286e+02  3.7757907650350938e+02  3.7374187680775248e+02  3.7627539278544225e+02  5.1307980764656941e+02  5.1824860325730958e+02  5.1823687197089794e+02  5.2320481464209740e+02  5.1822245634572926e+02  5.2322698611154613e+02  5.1364702807834817e+02  3.7521563374834977e+02  3.8034461056625298e+02  3.7987627944294428e+02  1.8945673054731336e+02  1.9038571489448574e+02  1.9448799789011230e+02  1.9041453557760764e+02  1.9544369984389448e+02  2.9126545039311208e+02  2.9254691071458433e+02  2.9676968291145567e+02  2.9289624349805410e+02  2.9839781557898993e+02  5.0624425465659391e+02  5.0708673384337402e+02  5.0191915430887252e+02  3.7192654194855470e+02  3.7124131594811956e+02  3.7590200592385997e+02  3.6593176328324762e+02  3.6662027691796862e+02  3.7091829544761964e+02  5.2729919002626468e+02  5.2776196533052496e+02  5.2276678747399012e+02  5.2773930771534413e+02  5.3215728015854825e+02  5.3171684000623418e+02  5.3613444245140317e+02  5.0765298270793079e+02  5.1223850414457354e+02  5.3217838598049252e+02  1.9938559854407868e+02  1.9538300084859250e+02  1.9945194490294352e+02  3.0214141731651119e+02  2.9833508851278339e+02  3.0220861959127211e+02  3.6150915758032249e+02  3.6603180221797186e+02  3.6141970710349358e+02  1.5760807502972631e+02  1.5144572039205681e+02  7.7074577620710571e+01  2.4760462731908063e+01  7.1045146817782026e+01  4.6473662476224575e+02  5.0283511141735568e+02  4.9851519480800226e+02  4.9942688398179479e+02  5.0424117141020747e+02  1.5455622807958767e+02  1.5146169150292118e+02  1.5454313995196330e+02  1.5762081503977296e+02  7.4074014923243666e+01  7.1062228070916305e+01  7.4059625052521454e+01  2.1607683138201420e+01  2.5139462458720011e+01  2.1230330723755600e+01  7.7088847515889270e+01  4.6814308733125773e+02  4.6475173850356634e+02  4.6813045702263264e+02  1.8096450043688046e+02  1.8672793770261671e+02  1.8521015172359182e+02  1.8248072683060923e+02  2.8316001374544328e+02  2.8873946228641654e+02  2.8721197319029903e+02  2.8468758966264539e+02  3.7475018080574534e+02  3.7872638500733763e+02  3.8375753514789858e+02  3.8329227984176316e+02  5.4972215813158220e+02  5.4306582126659146e+02  5.4779462065081327e+02  5.4586790335984199e+02  5.4499263893838406e+02  5.4972367073303769e+02  5.4307762012720173e+02  5.4779680087175325e+02  5.4500643279892904e+02  5.3821536042359526e+02  5.3819739179422356e+02  1.2603972878086142e+02  1.2207439606800075e+02  1.2447972083681690e+02  4.3689154723167161e+02  4.3254429884219786e+02  4.3518407420912661e+02  4.7149124540137620e+02  3.2845629290660298e+02  3.3493231645240041e+02  4.7150382326346880e+02  3.3167358201607334e+02  3.2844373553376738e+02  3.3168989287978769e+02  3.3491705774962145e+02  2.2800161451419305e+02  2.3244442599543277e+02  2.3131986328880075e+02  2.2912552099193942e+02  2.7001836958344876e+02  2.6532891137856558e+02  2.7046423513677632e+02  1.4090852352511342e+02  1.4050118886038686e+02  1.4541210070173318e+02  1.6813720668077738e+02  1.6359643205875324e+02  1.6857876829810729e+02  2.4187914947743366e+02  2.3723469035693157e+02  2.4232962477117530e+02  3.4576593905450750e+01  3.0242229903385205e+01  3.4998514653249593e+01  6.0785031671488014e+01  6.0388768524442867e+01  6.5168425268223075e+01  8.7274935291001611e+01  8.2860299898244108e+01  8.7705848186606687e+01  1.1396639538730102e+02  1.1356277584638011e+02  1.1842963796453103e+02  4.2366414611113373e+02  4.2321940364025227e+02  4.2855706294206254e+02  4.5319301020011289e+02  4.5274517647791612e+02  4.5813050759278087e+02  3.9445482761729670e+02  3.8959880733813901e+02  3.9491717070820408e+02  1.8635753377797388e+02  1.8211389458221834e+02  1.8325703304411050e+02  2.8846627072134442e+02  2.8441425032243814e+02  2.8566392989410622e+02  2.5494487215204038e+02  2.5192264629634894e+02  2.5531343961559045e+02  2.5155467293522241e+02  2.5457685456822142e+02  4.0873532091481582e+02  4.0522817583004723e+02  4.0907041824439216e+02  4.0488734818774714e+02  4.0840866287046316e+02  4.0940799195364161e+02  4.1291285097714291e+02  4.1325233807867306e+02  4.0974694411867722e+02  2.6037962933909608e+02  2.5676133066700100e+02  2.5893178099207910e+02  1.8728544089867188e+02  2.9009459328170158e+02  1.8205469428451650e+01  1.9691082805529649e+02  2.9960025593773315e+02  5.0178452255367961e+02  3.6396121647975542e+02  1.8484540097512289e+02  2.8729701636436039e+02  2.2315383713702116e+02  2.2425098781658644e+02  2.2690733730180179e+02  3.1057822436902046e+02  3.1610884715023525e+02  3.1099233044865912e+02  4.9017594533332380e+02  4.8436151504449020e+02  4.8974925357324724e+02  3.5279319517565716e+02  3.4724879220509155e+02  3.5242090301499661e+02  2.0766728477659149e+02  2.1297488946598475e+02  2.0801363285741692e+02  1.0064244380005442e+02  1.0416745516088776e+02  1.0066373175118548e+02  1.0414634626265941e+02  1.0062087446546785e+02  9.7137843587795345e+01  9.7116086927871976e+01  4.7697350760441374e+01  5.1159322191459843e+01  4.7716608237980608e+01  5.1139856626622390e+01  4.7677831635236679e+01  4.4254738487151513e+01  4.4235502271632519e+01  5.4100032205222158e+02  2.1412805239144106e+02  2.1374684220443260e+02  2.1873841398899964e+02  4.8302182928953005e+02  4.7804799370399360e+02  4.8345283004563390e+02  3.4606144752930487e+02  3.4127037609632157e+02  3.4646629237330296e+02  3.1734878428543823e+02  3.1695609682138274e+02  3.2210256073671695e+02  2.6100651212884691e+02  2.5815878780472661e+02  2.5779086820046246e+02  4.1487436650017958e+02  4.1197256247759418e+02  4.1163788416918669e+02  4.0327180962140102e+02  4.0617020693223941e+02  4.0650813169740144e+02  1.2814408303923767e+02  1.2364915514413029e+02  1.2470125058536772e+02  1.2709382586683306e+02  4.3919280470860889e+02  4.3426808011738569e+02  4.3541832545464598e+02  4.3804401315922723e+02  0.0000000000000000e+00  0.0000000000000000e+00  3.3605916513929319e+00  5.6379855070343933e+02  5.6379855070343933e+02  5.5993365681613159e+02  5.6379855070343933e+02  0.0000000000000000e+00  1.9759312154362340e+02  3.0028543941439580e+02  5.0124173217378461e+02  3.6343300734304160e+02  5.5286454284499553e+02  5.5289542420219266e+02  5.5286576900107366e+02  5.5289624042055982e+02  2.6351648879919299e+01  2.2311105837086323e+01  2.6183464508223022e+01  2.6027231638322533e+01  2.2485903291898424e+01  1.8609956603667644e+01  2.0352482130456821e+02  2.0359238522880386e+02  3.0635899567726079e+02  3.0642616854191135e+02  3.5715041744696998e+02  3.5705524241091797e+02  4.9479820435064937e+02  4.9388586014320322e+02  1.7899117565441688e+02  1.7784639643741963e+02  2.8122097496794072e+02  2.7997284607378850e+02  1.7254056004098267e+01  1.7951660178327938e+01  2.1631131052210559e+01  9.4319494476454668e+00  9.4619212333497167e+00  1.3029771215090173e+02  1.3134766992584974e+02  4.4155809321724200e+02  4.4270685723158999e+02  1.1779706059815391e+01  9.1832430935125018e+00  9.2499066660989335e+00  1.2897288084063931e+02  1.3323565429365436e+02  1.3193152997589715e+02  4.4010858730238942e+02  4.4478028709846683e+02  4.4335004409378570e+02  2.0568567228918263e+02  2.0259968705783763e+02  2.0190665409694998e+02  3.0876668326393269e+02  3.0551893072372388e+02  3.0481057007394600e+02  3.5467897680349620e+02  3.5799762265214360e+02  3.5869094690993961e+02  4.9240270534816273e+02  4.9499996142769686e+02  4.9642233594855094e+02  1.8025378208160595e+02  1.7599387655752616e+02  1.7723682376403895e+02  2.8255720956670859e+02  2.7812097214669257e+02  2.7944794092254756e+02  1.6879460542240651e+01  1.2561253504121384e+01  1.2918480487017185e+01  4.4339995615089435e+02  4.3827654652518271e+02  4.3617256143344457e+02  4.3315654220416889e+02  4.4129685474628218e+02  7.4102788199068812e+01  7.6487763282174711e+01  7.8901506878124110e+01  7.1690848668724755e+01  6.9310424196688615e+01  1.5901488051896109e+02  1.5433396964598592e+02  1.5210589623740134e+02  1.4966000603127986e+02  1.5678574139904032e+02  9.6280353600153276e+01  1.0066542706377224e+02  1.0285965335392531e+02  1.0505943261761306e+02  9.8471665874386019e+01  4.3407560640100328e+01  4.7716759058407739e+01  4.9873019640827216e+01  5.2033864575184460e+01  4.5561782427465509e+01  1.3198376332206550e+02  1.2539162479606183e+02  1.3006466142500986e+02  1.2731180185755527e+02  1.2264303048467113e+02  1.7619841430297322e+02  1.7858332742961031e+02  1.8009180712150263e+02  2.7851459592268412e+02  2.8083806251757386e+02  2.8236093430977542e+02  3.8579120150647191e+02  3.8283211314833846e+02  3.8168574985297363e+02  2.2244879161615077e+02  2.2522554088655460e+02  2.2634678489280441e+02  2.5088324710818105e+02  2.5309954682273806e+02  2.5454780064017706e+02  2.2944644354822310e+02  2.3053803759508301e+02  2.3307410845724408e+02  3.2667681422562941e+02  3.3422758830163127e+02  3.2917444289431171e+02  3.3172835170382484e+02  3.3678441230744988e+02  4.7336336119063213e+02  4.6806394815346317e+02  4.6545575670403639e+02  4.6277300936970818e+02  4.7075380824362480e+02  1.6705750040485810e+01  2.0111456798668364e+01  1.7187317829571137e+02  1.7313401885120618e+02  2.4565567050969187e+02  2.4986921566626367e+02  2.4698811873183348e+02  2.5119364201617219e+02  9.0873757912785848e+01  9.4877473219804642e+01  9.2134778976472404e+01  9.6126338760069686e+01  3.9837228230050931e+02  4.0280455419760062e+02  3.9977338309741521e+02  4.0419803096034042e+02  1.1041515713669170e+02  1.0636105635761533e+02  1.0910040491505444e+02  1.0506329678029164e+02  4.4926061892483330e+02  4.4781137520828264e+02  4.1976496350232804e+02  4.1532267879189618e+02  4.1832781558655944e+02  4.1390681433131630e+02  5.7297450926694921e+01  5.3315604397444197e+01  5.6006277034775195e+01  5.2042130203702058e+01  3.8106195169343188e+01  4.2038450610695307e+01  3.9346316999623205e+01  4.3265462067482964e+01  1.3732409301399466e+02  1.3600041323585060e+02  2.7383886401450457e+02  2.7515228070695235e+02  3.1219271605425791e+02  3.0923163482152432e+02  3.0789889647269473e+02  3.1356185449727309e+02  3.5125297640313096e+02  3.5425257593967063e+02  3.5569241100726418e+02  3.4982437898756405e+02  4.8843872152041882e+02  4.9159556557891437e+02  4.9298990062951964e+02  4.8702795524164742e