<?xml version="1.0"?>
<VTKFile type="UnstructuredGrid"  version="0.1"  >
<UnstructuredGrid>
<Piece  NumberOfPoints="2690" NumberOfCells="4864">
<Points>
<DataArray  type="Float64"  NumberOfComponents="3"  format="ascii">-5.011446109880731 22.00249004704971 0  -5.612537945448234 21.26501738685035 0  -5.011214607518162 21.50269533692475 0  -5.010955745702876 21.00250950959204 0  -5.612758914713619 21.76506127043393 0  -6.214086427947119 21.52722875906464 0  -9 21.99999999996945 0  -8.398545845197505 21.26302081727289 0  -9 21.49999999997139 0  -9 20.99999999997333 0  -8.398585191022638 21.76301786350565 0  -7.797133089052175 21.52602930625667 0  -9 32.9999999999446 0  -8.399412470102931 32.26301266207212 0  -9 32.49999999994358 0  -9 31.99999999994255 0  -8.399451864966547 32.76301334688967 0  -7.798866330337318 32.52602092044972 0  -5.017200738063771 33.00269451044016 0  -5.534357810470047 32.29902479585616 0  -5.016957264966154 32.50305134956173 0  -5.016690831504825 32.00261034788095 0  -5.534584699634173 32.79909318510181 0  -6.051983453239285 32.59510568507183 0  -5.028231641770714 54.0025802089066 0  -5.627402695923782 54.73995712514789 0  -5.627185819603857 54.24006388409455 0  -6.226120085394578 54.47717317468581 0  -5.02847570125148 54.50276069541998 0  -5.028712776264316 55.00260283079865 0  -9 54.99999999998974 0  -8.473690455317561 54.29655437005802 0  -9 54.49999999998872 0  -9 53.99999999998769 0  -8.473724238104582 54.79654401421629 0  -7.947421460419683 54.59309128472775 0  -9 39.99999999995897 0  -8.400081067314696 40.73800494940762 0  -8.400041686055381 40.23800541585712 0  -7.800120849519995 40.47600359757563 0  -9 40.49999999996 0  -9 40.99999999996102 0  -5.021388607876084 41.0023908305451 0  -5.594426974914095 40.27038995215582 0  -5.021147988965053 40.5027743821093 0  -5.020898863410909 40.00269396051694 0  -5.594648714685793 40.77034913199266 0  -6.167930184538498 40.5378721293752 0  -9 55.99999999999179 0  -8.425978990464909 56.74379369948023 0  -8.425945481116718 56.2437872339668 0  -7.851926098363229 56.48757413552331 0  -9 56.49999999999282 0  -9 56.99999999999384 0  -5.029272112247272 56.00246811412009 0  -5.603636059057039 56.74579537137348 0  -5.603419587426677 56.24578520046943 0  -6.17754019989323 56.48879744034197 0  -5.029531287439677 56.50284318443218 0  -5.029767301160286 57.00261009504337 0  -7.446267867453105 43.00140965898611 0  -6.603180447393583 43.1103716062582 0  -7.209180727266033 43.33898568979597 0  -6.97211459978943 43.67656393353717 0  -6.840247403572682 42.772780363557 0  -6.234189796846319 42.54415097145012 0  -6.578090364415941 49.00265567429747 0  -7.42052439806502 48.89354515607322 0  -6.814971955315644 48.66506072936006 0  -7.051875065863468 48.32745815321783 0  -7.183622589410617 49.23113461406683 0  -7.789118240431036 49.45963267506059 0  -6.577130789897813 46.00249555495771 0  -7.419899267630308 45.89344248866842 0  -6.81410722509692 45.66487248680154 0  -7.051105018653024 45.32726224690365 0  -7.182903093216843 46.23105113836327 0  -7.788638642811109 46.45959720271526 0  -6.564716716943278 7.002589793716458 0  -7.411803772545849 6.893515765136836 0  -6.802908626782055 6.664993254005823 0  -7.04112184861169 6.327397386271278 0  -7.173592198462661 7.23111142045422 0  -7.782431120308449 7.459630910139929 0  -7.443611418809824 30.00139377217708 0  -6.599082071376232 30.11033675845242 0  -7.206118958724566 30.33893207089547 0  -6.968647653365508 30.67646200477541 0  -6.836554565456835 29.77279027558995 0  -6.229460436542896 29.54420004205343 0  -6.563781632624688 4.00246674520108 0  -7.411242504017203 4.109779791106461 0  -6.802255485441459 4.339584378424723 0  -7.04070893223283 4.676693687818097 0  -7.172790374680687 3.772665207754004 0  -7.781830625091246 3.542880200447131 0  -6.565666806567984 10.00261324748159 0  -7.412467412936102 10.10987768102929 0  -6.803958079377315 10.3396980507476 0  -7.042228611010525 10.67678283964356 0  -7.174195520243541 9.772795227826242 0  -7.782760686809634 9.542974414191427 0  -6.566618862390681 13.00263475478001 0  -7.413043501791288 12.89355202645383 0  -6.804623805016068 12.66503906477826 0  -7.042649939297323 12.32744428482187 0  -7.175018626820653 13.23115080528277 0  -7.78338210508905 13.45965918631441 0  -6.567573682649442 16.00267516497896 0  -7.413666134080294 15.89356358683078 0  -6.805484843630613 15.66508235786427 0  -7.043417383311036 15.32748313525657 0  -7.175734921055562 16.23115322403032 0  -7.783859737926028 16.45964642528315 0  -6.568530747078768 19.0023946108289 0  -7.414335603111096 19.10970766563941 0  -6.806543384049376 19.33943722881732 0  -7.044534549091507 19.67649487921544 0  -7.176343032112152 18.77264250813805 0  -7.784192074785119 18.5428833350647 0  -6.57107732743887 27.00230442817884 0  -7.415996198197055 27.10965098818295 0  -6.808840056841516 27.33939738424297 0  -7.046581675997646 27.67649387805558 0  -7.178253217707249 26.77254042038489 0  -7.785465698359165 26.54279736287227 0  -8.270946822508135 19.09460640842889 0  -8.027578289161887 18.81874092460286 0  -8.392074403493165 18.27144862279817 0  -8.635447189720932 18.54731409123691 0  -9 17.99999999998495 0  -8.271710360614264 27.09457792321873 0  -8.028596823768455 26.81868794402657 0  -8.39271130858819 26.27139641349741 0  -8.635829076188685 26.54728850960172 0  -9 25.99999999995395 0  -8.270641757008628 15.90689276670858 0  -8.027241930280111 16.18327101602059 0  -8.391951431047632 16.72981751153334 0  -8.635347015320264 16.45344224474657 0  -9 16.99999999998883 0  -5.74369805264659 30.09694522567875 0  -5.986569773951604 29.82056918640081 0  -5.622308882189404 29.27392667508751 0  -5.379429659242586 29.55041945006493 0  -5.015093739003283 29.00248548329195 0  -8.27035547270547 12.90689193802151 0  -8.026859997888897 13.18327503527672 0  -8.391712556284514 13.72983067803052 0  -8.635203801100898 13.45344717658225 0  -9 13.99999999999401 0  -8.270087896134342 10.09468602369405 0  -8.026433035421711 9.818830328772608 0  -8.391358890142582 9.271486784752229 0  -8.635017979065852 9.547342508841822 0  -9 8.99999999999857 0  -8.269526510003166 4.094639704238737 0  -8.025686600302487 3.818762052147009 0  -8.390897826673182 3.271436464586172 0  -8.634739963453249 3.547314652744765 0  -9 2.999999999998668 0  -8.269785657467422 6.906873788356871 0  -8.026099647211632 7.183251851629493 0  -8.391236971578071 7.729816210782899 0  -8.634918691857738 7.453438416036811 0  -9 7.999999999999485 0  -8.273507682532449 45.90684003576688 0  -8.031064348906225 46.18321575474452 0  -8.394340920214978 46.7298030594813 0  -8.636779966047722 46.45342759259048 0  -9 46.99999999997333 0  -8.2737950013382 48.90688286177348 0  -8.031447767744055 49.18325913804433 0  -8.394580711201989 49.72981048716256 0  -8.6369237247802 49.45343783279414 0  -9 49.99999999997949 0  -5.749258225609814 43.09697474396795 0  -5.991714400663729 42.82056126252186 0  -5.628074447794608 42.27384243505655 0  -5.385611195472156 42.55038591399767 0  -5.021894166104452 42.00238610111192 0  -5.736332246449006 23.91939705748258 0  -5.984426562583219 24.18686461703796 0  -5.622749959246347 24.72900073399531 0  -6.232502349722755 24.45434009707067 0  -5.374665301677805 24.46165152011751 0  -5.013048350093998 25.00248023041866 0  -8.278810110921118 52.08437263856522 0  -8.031704154292049 51.81689036156306 0  -8.392268446457688 51.27471431151104 0  -7.784580797230896 51.54941507777421 0  -8.6393793449567 51.54219643116344 0  -9 50.99999999998153 0  -5.742393277340505 38.0867148297928 0  -5.989813802330392 37.81869285589361 0  -5.628298074501834 37.27711336402422 0  -6.237252862694082 37.55068071794855 0  -5.38086934625045 37.5452755094056 0  -5.019272947931011 37.0022749445487 0  -5.741038666453234 34.91937223811968 0  -5.988775991501836 35.18682214275811 0  -5.627622733662231 35.72892773186452 0  -6.236494804878443 35.45427980566803 0  -5.379893530708702 35.46161329407867 0  -5.018803778921636 36.0023724296666 0  -7.891140968122717 50.50132992419622 0  -7.837857231225216 51.02537561169523 0  -8.445588688879095 50.75065841634702 0  -6.130095531588411 36.50246059743704 0  -6.183677082123786 37.02655499914766 0  -5.574682565112069 36.75281008403056 0  -6.183292239745721 35.97835496036583 0  -5.574461490503952 36.25278570134045 0  -5.986651133693953 25.26266576450136 0  -6.109570944757118 24.85850873827543 0  -5.499851940163643 25.13302776465969 0  -8.030761446383924 25.74670964920629 0  -7.908107163081663 26.14475343233893 0  -8.51538877679744 25.87335521824281 0  -6.951554188695335 34.37771782841929 0  -6.593998724252813 34.91601230235438 0  -6.849881165960872 35.24031647520656 0  -7.207439523882766 34.70204215323996 0  -7.463302871204035 35.02636211342859 0  -7.071015645956837 52.62590724814736 0  -7.427772881876785 52.08767423249065 0  -7.172481464764753 51.7634085850537 0  -6.815726941047797 52.30164890946269 0  -6.560416325843945 51.97739787813239 0  -6.952698416481398 38.62589681770257 0  -6.595001268507572 38.08830298769131 0  -6.850593276441295 37.76351307527651 0  -7.208287470960114 38.30112819572862 0  -7.463898493738531 37.97635450318875 0  -6.948596306941935 23.37773154840468 0  -6.590523719406264 23.9160440040433 0  -6.846775182997979 24.24035924786531 0  -7.204850724060508 23.70206394768904 0  -7.461083234996356 24.02638936361512 0  -7.886470489372671 17.5011667476559 0  -7.835327726057253 18.02202872937016 0  -8.443253504268201 17.75057654840796 0  -7.835168606187557 16.98040795023634 0  -8.443216986268373 17.25058712393354 0  -7.885161008464427 8.501194507449265 0  -7.833957363616904 9.022084689843117 0  -8.442598606154528 8.750597530183997 0  -7.931620884651818 2.416633563859861 0  -7.856718258206074 2.979753698684413 0  -8.465827696416182 2.708320328283937 0  -7.833799508192253 7.980413362706593 0  -8.442562392242225 8.250596410803677 0  -7.840133166200118 49.98048277411296 0  -8.44555216771071 50.25066873880909 0  -6.042731977448057 41.59551592763174 0  -6.138466254575292 42.06984
[...]
<PointData  Scalars="f_29"> 
<DataArray  type="Float64"  Name="f_29"  format="ascii">2.4272474594609483e+02  2.3449013578909356e+02  2.3713212719448330e+02  2.3154604852930845e+02  2.4004842169493168e+02  2.3740873767331985e+02  2.4272354762575330e+02  2.3448497579331257e+02  2.3712987218313947e+02  2.3154380883386338e+02  2.4004264781286389e+02  2.3740567350595995e+02  3.6474125288462528e+02  3.5647511982501214e+02  3.5912707857058479e+02  3.5352153953773274e+02  3.6205190569941271e+02  3.5940671474823506e+02  3.6472100138097329e+02  3.5686802782583118e+02  3.5913737743077985e+02  3.5356087518830327e+02  3.6243173212022378e+02  3.6016578136999971e+02  5.9872442591328968e+02  6.0705505232346775e+02  6.0143782021776394e+02  6.0410519337902713e+02  6.0436594184628837e+02  6.1002880622170494e+02  6.0999927834978155e+02  6.0209743333511506e+02  6.0438342065262054e+02  5.9876560094709180e+02  6.0770435921535545e+02  6.0542246591246180e+02  4.4248465485300437e+02  4.5077751992675252e+02  4.4518606350096400e+02  4.4784322085764654e+02  4.4811376500548874e+02  4.5373456916070160e+02  4.5373233574142665e+02  4.4553317914295587e+02  4.4812588185592261e+02  4.4250881337823824e+02  4.5112536245579787e+02  4.4853198878704569e+02  6.2116916067216243e+02  6.2954551279116538e+02  6.2393064647441793e+02  6.2665990502821512e+02  6.2679278516799286e+02  6.3244870776593575e+02  6.2118522970372680e+02  6.2955551946205696e+02  6.2394176732374058e+02  6.2666676581587660e+02  6.2680583000161323e+02  6.3246124515613167e+02  4.7600311660222081e+02  4.7721153523774859e+02  4.7976240493578666e+02  4.8352276680560925e+02  4.7345213635415053e+02  4.7090325239934413e+02  5.4290456140635672e+02  5.4169424503603955e+02  5.3913957668278852e+02  5.3537507938621843e+02  5.4545973642197089e+02  5.4801258316130327e+02  5.0944793351427268e+02  5.0823426360262175e+02  5.0568566376821775e+02  5.0192311903585227e+02  5.1199668640697575e+02  5.1454492415225877e+02  7.7017768565111766e+01  7.5819529159629738e+01  7.3301599094114124e+01  6.9585794915262653e+01  7.9536356860781524e+01  8.2053113274216599e+01  3.3134028695642638e+02  3.3254497010855493e+02  3.3508575091435023e+02  3.3883301577947958e+02  3.2880111107728948e+02  3.2626186455719375e+02  4.3996653618369947e+01  4.5183617491490345e+01  4.7707102343706950e+01  5.1417821721912730e+01  4.1473050042668575e+01  3.8951034589601548e+01  1.1007315955084835e+02  1.1126498189879248e+02  1.1379134224906436e+02  1.1750946684443947e+02  1.0754706767624980e+02  1.0502323708680804e+02  1.4315535112052780e+02  1.4195605426207726e+02  1.3943278413669731e+02  1.3571059317623255e+02  1.4567897802431818e+02  1.4820116614269270e+02  1.7626854015784505e+02  1.7507051151992806e+02  1.7254224302670676e+02  1.6881645415106425e+02  1.7879724783740141e+02  1.8132353555600034e+02  2.0942699718939144e+02  2.1062564732241069e+02  2.1315974924236011e+02  2.1689391226272824e+02  2.0689448971366636e+02  2.0436298162181777e+02  2.9806961704659790e+02  2.9926865943811998e+02  3.0180886412558294e+02  3.0554911584596942e+02  2.9552977012857565e+02  2.9298983902700917e+02  2.1046614249814857e+02  2.0741568474925458e+02  2.0138021333668527e+02  2.0442462162567040e+02  1.9841693151166075e+02  2.9910965141470513e+02  2.9605004112486108e+02  2.8999364120427850e+02  2.9304732694793802e+02  2.8701039114073234e+02  1.7522276161479934e+02  1.7827251680654803e+02  1.8430316078068097e+02  1.8125150945897764e+02  1.8725048098130378e+02  3.3238590309214203e+02  3.2932476099591912e+02  3.2326830401503560e+02  3.2632042951461091e+02  3.2028935047287354e+02  1.4210720518685730e+02  1.4515356500375216e+02  1.5117624264976766e+02  1.4813486961921518e+02  1.5413682767765903e+02  1.1110712201769302e+02  1.0806603375839990e+02  1.0204943746701368e+02  1.0508446756465619e+02  9.9095047215600616e+01  4.5025045701638547e+01  4.1988342736617341e+01  3.5976137911449264e+01  3.9013683071516937e+01  3.3030741333826697e+01  7.5967935570427557e+01  7.9010035968456179e+01  8.5022986269428031e+01  8.1979505973596659e+01  8.7961216467181274e+01  5.0838733608374253e+02  5.1146542290461173e+02  5.1755131069548440e+02  5.1447826281484424e+02  5.2054324523196919e+02  5.4184826795137758e+02  5.4492979130654555e+02  5.5102359328289697e+02  5.4794015044680668e+02  5.5400242385318097e+02  4.7705438881299494e+02  4.7397992379114845e+02  4.6790117205968062e+02  4.7096604641056996e+02  4.6491761771940764e+02  2.6389788371799040e+02  2.6686347264626335e+02  2.7286032617063069e+02  2.6982925288802346e+02  2.6989616646967892e+02  2.7587866266025912e+02  5.7734621343600384e+02  5.7435653346276843e+02  5.6831523358686275e+02  5.7136535167958618e+02  5.7129837886854125e+02  5.6528475158563219e+02  4.2121857137386377e+02  4.1824146058382058e+02  4.1223147566209354e+02  4.1526298076220456e+02  4.1519798723850454e+02  4.0922089507126208e+02  3.8598130076374656e+02  3.8895881152690470e+02  3.9497550041060828e+02  3.9193650666103861e+02  3.9199315721100982e+02  3.9798444953725573e+02  5.5965054752191281e+02  5.6551048918725098e+02  5.6244527331400798e+02  4.0360137380597928e+02  4.0943478995518547e+02  4.0638926199487003e+02  3.9776518892151063e+02  4.0081098350330467e+02  2.7878780684167265e+02  2.7430678471953286e+02  2.7735066144024040e+02  2.8416639562571032e+02  2.8857931287739382e+02  2.8557212587278156e+02  3.7998278514430376e+02  3.8595984481431537e+02  3.8956761849029618e+02  3.8358985317548957e+02  3.8719709933455835e+02  5.8338695455539539e+02  5.7737349717498535e+02  5.7374686363477269e+02  5.7975868143378045e+02  5.7613089561873596e+02  4.2722478864900245e+02  4.2124123462059958e+02  4.1763000547479788e+02  4.2361230870269071e+02  4.2000003971628428e+02  2.5791367161835831e+02  2.6387134059417559e+02  2.6746486207857816e+02  2.6150689029522812e+02  2.6509956540103536e+02  1.9283924328183539e+02  1.9860353296756011e+02  1.9560570743988359e+02  1.8707775182658452e+02  1.9006307275627117e+02  9.3534965876841824e+01  9.9281773169473212e+01  9.6292376543180936e+01  2.6553236157973288e+01  3.2755400480149319e+01  2.9774998744380483e+01  8.7790551112401914e+01  9.0766144555753002e+01  5.5382789323578561e+02  5.5684469298470140e+02  4.6033470885927750e+02  4.6562052885313750e+02  4.6260958764146477e+02  2.7247691806187049e+02  2.7115365742190505e+02  2.6878746452534671e+02  5.6720133163619869e+02  5.6928297203431634e+02  5.7166586000627206e+02  4.1113579089036523e+02  4.1319901198270037e+02  4.1556755669442788e+02  3.9608525317689492e+02  3.9401152340649531e+02  3.9164066149727353e+02  3.1735440759101971e+02  3.2180916429755291e+02  3.1880605574634041e+02  4.8392048281822173e+02  4.7741056872039411e+02  4.8372222379681205e+02  5.3497874106981931e+02  5.4149464806400522e+02  5.3517637804733454e+02  5.0152318858963383e+02  5.0803372481794298e+02  5.0172270929534403e+02  6.9190452561511364e+01  7.5620682945582445e+01  6.9388127893854417e+01  5.1803491530337745e+01  4.5377516482377700e+01  5.1610913927791643e+01  3.3931764836331831e+02  3.3278762531013138e+02  3.3907682389837674e+02  1.1789713914924288e+02  1.1146016292620399e+02  1.1770366736337017e+02  1.3531583130524641e+02  1.4175768251996112e+02  1.3551317555080351e+02  1.6842418381286461e+02  1.7487289002630672e+02  1.6861980702160673e+02  2.1737251335344823e+02  2.1086665190408803e+02  2.1713487992299636e+02  3.0594069134682150e+02  2.9946489981428181e+02  3.0574534317072778e+02  2.8937404070030846e+02  2.9118153718859804e+02  2.9372239525613247e+02  2.0030935671880388e+02  2.0233584103988761e+02  2.0486815653086450e+02  1.8529622351364213e+02  1.8331040464008004e+02  1.8078200134374839e+02  3.2252894208128828e+02  3.2439536046210685e+02  3.2693451043988017e+02  1.5204768024098331e+02  1.5012471015160872e+02  1.4760118507906571e+02  1.0106384178668395e+02  1.0304302901656062e+02  1.0556851036884005e+02  3.6445204763025863e+01  3.7697679966929002e+01  4.0221231461625187e+01  8.6016559870604027e+01  8.4035382208117113e+01  8.1516609788458055e+01  4.6713713165574552e+02  4.6901985306290976e+02  4.7157081072680103e+02  5.5202666840239533e+02  5.5002017565627671e+02  5.4746516248207865e+02  5.1843197738798870e+02  5.1648868919712311e+02  5.1393959218612360e+02  4.5443288852795422e+02  4.5703232678239931e+02  6.1560131058825698e+02  6.0985433828164628e+02  6.1279424893885675e+02  6.1559254532130649e+02  6.1050746950489679e+02  6.1279279623126490e+02  6.2112635834055936e+02  6.1837891470639738e+02  6.2113415780558557e+02  6.1838927796555777e+02  1.5552263591028121e+01  2.2703913925651470e+01  1.7204321255942158e+01  1.8855392579791744e+01  2.1049879305868121e+01  6.5744887394091177e+02  6.5747954474352173e+02  6.6176251151280007e+02  6.5750921988953860e+02  6.6173311009485883e+02  6.6601777345445294e+02  6.5744955689297399e+02  6.5748029591575960e+02  6.6176322405075359e+02  6.6173369351655060e+02  6.6601777345445294e+02  6.4006339362063898e+02  6.3336157264123199e+02  6.3624440936975600e+02  6.4006749916087165e+02  6.3336792613477337e+02  6.3625237950774078e+02  8.5137791716551074e+00  8.5412757543212763e+00  4.2852335307529881e+00  8.5700042414694302e+00  4.2568839895695607e+00  0.0000000000000000e+00  2.4645045109864432e+02  2.4233771443180473e+02  2.4726871626654690e+02  2.4152129885984118e+02  2.4563861868596186e+02  3.6847611783635665e+02  3.6434967770940148e+02  3.6929086842459202e+02  3.6353596873987135e+02  3.6766701991114780e+02  4.3874633766879037e+02  4.4288467381179635e+02  4.3792776450631442e+02  4.4370141202805212e+02  4.3955857535493220e+02  5.9578336093029100e+02  5.9994485055540054e+02  5.9836492971009443e+02  5.9420952421339155e+02  5.9262752356502051e+02  8.4096287381464965e+00  8.4892216217455996e+00  4.2857440492533261e+00  4.2045040108077059e+00  0.0000000000000000e+00  2.2849399133216778e+02  2.3295200224564135e+02  2.3003016112026526e+02  3.5046291129098967e+02  3.5493511468260533e+02  3.5200140976166369e+02  4.5668077756257065e+02  4.5226161234166415e+02  4.5519838345222087e+02  6.0985456978408774e+02  6.1560089347003395e+02  6.1559955356018486e+02  6.2112934375778889e+02  6.1559721066387442e+02  6.2113278223615850e+02  6.1050983878861382e+02  4.5390983697357359e+02  4.5980908374869927e+02  4.5928642984735467e+02  2.3512841972222643e+02  2.3626578805707624e+02  2.4120036239903519e+02  2.3626737621329681e+02  2.4233947616883310e+02  3.5636647291669368e+02  3.5788508768301426e+02  3.6283002559174912e+02  3.5826530539367241e+02  3.6472765580307373e+02  6.0226316049519107e+02  6.0318563443941753e+02  5.9744424037106432e+02  4.5014005496565022e+02  4.4933589852584078e+02  4.5471387006870168e+02  4.4322687513503303e+02  4.4403191442665945e+02  4.4899314228736296e+02  6.2566293356345966e+02  6.2616544028532041e+02  6.2063099047159528e+02  6.2616196918085700e+02  6.3106385570251643e+02  6.3056397295857016e+02  6.3546361990322271e+02  6.0384278981808677e+02  6.0893072660649466e+02  6.3106697456646839e+02  2.4708174767061729e+02  2.4224618002285405e+02  2.4717255104776970e+02  3.6910801377997569e+02  3.6463737006409082e+02  3.6919767998449885e+02  4.3812265773944665e+02  4.4332539197088727e+02  4.3802863037799813e+02  1.9657607891743154e+02  1.8906588301199616e+02  9.7301289839186992e+01  3.1501512243386642e+01  8.9773775359306782e+01  5.5583674266144135e+02  5.9848029386457097e+02  5.9366337816788996e+02  5.9469588857998849e+02  6.0005788334690544e+02  1.9284177437130415e+02  1.8906854112816856e+02  1.9284093260251169e+02  1.9657556725897325e+02  9.3539496624668473e+01  8.9777638177178630e+01  9.3537509389049731e+01  2.7489285910300008e+01  3.1967602453099371e+01  2.7022191164695577e+01  9.7301779110705709e+01  5.5965077166454682e+02  5.5583822282009953e+02  5.5965107505319861e+02  2.2487665708164508e+02  2.3181362117170082e+02  2.3000154138558815e+02  2.2668758576640860e+02  3.4684107716601500e+02  3.5341684678130196e+02  3.5160309757122866e+02  3.4865385173564931e+02  4.5340797315299699e+02  4.5798143689381646e+02  4.6373520262414013e+02  4.6321255799733530e+02  6.5051041541030099e+02  6.4315198928284963e+02  6.4837725101213346e+02  6.4624467774926711e+02  6.4528802224835965e+02  6.5051015513681523e+02  6.4315329032952820e+02  6.4837731702472479e+02  6.4528915659215590e+02  6.3776266178579112e+02  6.3776024460351823e+02  1.5796860287546912e+02  1.5308318463211938e+02  1.5607024099269492e+02  5.2441431539379846e+02  5.1947794220986498e+02  5.2249621306591644e+02  5.6342769546137424e+02  3.9984076139627336e+02  4.0737005893999196e+02  5.6342604351699617e+02  4.0359711507579374e+02  3.9984098860085419e+02  4.0359904627305446e+02  4.0736662736747707e+02  2.8144441765316407e+02  2.8677037428628847e+02  2.8540951702816852e+02  2.8280497895026650e+02  3.3134418220984509e+02  3.2580895757109442e+02  3.3186572312555433e+02  1.7625374769300362e+02  1.7573833553355698e+02  1.8175937607745328e+02  2.0942573899930383e+02  2.0391464760729562e+02  2.0994603008693349e+02  2.9806630935968866e+02  2.9253430949333671e+02  2.9858821905240166e+02  4.3990709660847301e+01  3.8503853766471408e+01  4.4508244277241815e+01  7.6994924191425838e+01  7.6481165351926776e+01  8.2485786956423453e+01  1.1007060559666633e+02  1.0457598365201760e+02  1.1058920660679058e+02  1.4313845219519564e+02  1.4262297925733748e+02  1.4864173050590375e+02  5.0943014623284819e+02  5.0890892128803210e+02  5.1499068065352071e+02  5.4289016885899309e+02  5.4236930629103165e+02  5.4845350295175467e+02  4.7600964480718375e+02  4.7045363270143361e+02  4.7653305917126676e+02  2.3140853474236673e+02  2.2628310700060720e+02  2.2768515461757679e+02  3.5306068824586617e+02  3.4829828601405291e+02  3.4975281721629830e+02  3.1354135938674557e+02  3.0994912618481385e+02  3.1395805895175613e+02  3.0953221426497248e+02  3.1312522977975431e+02  4.9231566665850676e+02  4.8832258003801195e+02  4.9272272689343225e+02  4.8791301782764617e+02  4.9190917410053873e+02  4.9313032502649247e+02  4.9712251640814242e+02  4.9753181506688844e+02  4.9353904332556658e+02  3.1994145623827143e+02  3.1565528966825207e+02  3.1824352610470964e+02  2.3254497402595163e+02  3.5495900937967275e+02  2.3171626378675107e+01  2.4418529011019947e+02  3.6620854556162698e+02  5.9725110184201833e+02  4.4101753213797991e+02  2.2962253355516933e+02  3.5165922787438092e+02  2.7563175937558918e+02  2.7696026456427376e+02  2.8011667150416332e+02  3.7900327483811554e+02  3.8546830723484521e+02  3.7949251398453617e+02  5.8436878243797514e+02  5.7786579102942528e+02  5.8387953678201484e+02  4.2807729962551338e+02  4.2166865256576142e+02  4.2765219075572315e+02  2.5707033137816967e+02  2.6344830769544973e+02  2.5749137828981117e+02  1.2660610615939468e+02  1.3096215531322699e+02  1.2660863122291711e+02  1.3095980550679704e+02  1.2660352503959469e+02  1.2225256342287008e+02  1.2224985888041240e+02  6.0497011506810288e+01  6.4845345515453928e+01  6.0500281979840729e+01  6.4842255251740980e+01  6.0493887171590650e+01  5.6151577993761137e+01  5.6148284818358803e+01  6.4085577515792863e+02  2.6482663445151508e+02  2.6436454522151485e+02  2.7035137723879427e+02  5.7640796876984587e+02  5.7083979285370322e+02  5.7687606086672656e+02  4.2028872820383174e+02  4.1474355656955254e+02  4.2075332580693396e+02  3.8690969909361888e+02  3.8644711580266767e+02  3.9245002748861128e+02  3.2072988550793559e+02  3.1734379839693463e+02  3.1692766641685722e+02  4.9931504130235174e+02  4.9601812898158482e+02  4.9561247830059989e+02  4.8613272512913454e+02  4.8942807158145149e+02  4.8983499950488545e+02  1.6051690339007990e+02  1.5500756279495783e+02  1.5628193860802901e+02  1.5924350622018184e+02  5.2698930954233549e+02  5.2142244775330767e+02  5.2271030868002128e+02  5.2570249880647555e+02  0.0000000000000000e+00  0.0000000000000000e+00  4.2851454803157951e+00  6.6601777345445294e+02  6.6601777345445294e+02  6.6176323118006405e+02  6.6601777345445294e+02  0.0000000000000000e+00  2.4490746051671135e+02  3.6692046175592617e+02  5.9673295018078363e+02  4.4032721768225321e+02  6.5397998692988449e+02  6.5400860114081513e+02  6.5398057849968529e+02  6.5400909558115177e+02  3.3479490016605254e+01  2.8337241372823648e+01  3.3249469550457732e+01  3.3039267378301581e+01  2.8573362024431560e+01  2.3663464931783196e+01  2.5207579870585965e+02  2.5216948444075055e+02  3.7405564507510474e+02  3.7414709082542595e+02  4.3309991569675759e+02  4.3300207555007700e+02  5.8953025591533731e+02  5.8849897059884995e+02  2.2252631646947441e+02  2.2112478053004295e+02  3.4453290791242364e+02  3.4308020485107642e+02  2.1958522422413214e+01  2.2822194629766372e+01  2.7493683735611665e+01  1.2031864338959195e+01  1.2061849336909217e+01  1.6319798627897947e+02  1.6446939937401621e+02  5.2969811746350297e+02  5.3098279680389317e+02  1.5006771906880372e+01  1.1707350502571558e+01  1.1788452172731640e+01  1.6159671132961526e+02  1.6682654389188065e+02  1.6525185846181361e+02  5.2808021324244567e+02  5.3336448586569418e+02  5.3177310531847957e+02  2.5472516186100941e+02  2.5099669469088269e+02  2.5018148755678237e+02  3.7692046245841425e+02  3.7310536116306793e+02  3.7229318933375396e+02  4.3028988078054715e+02  4.3410870896363861e+02  4.3492450918459014e+02  5.8681257707521536e+02  5.8972041338422764e+02  5.9129658164560806e+02  2.2407622171580923e+02  2.1892062975913282e+02  2.2044430015378845e+02  3.4609363541567313e+02  3.4087615021584077e+02  3.4241441873957251e+02  2.1516280722379676e+01  1.6019941309722434e+01  1.6485279669707893e+01  5.3173187011435175e+02  5.2592244046550900e+02  5.2355107821360627e+02  5.2011410251516975e+02  5.2936082408718482e+02  9.3543354787135939e+01  9.6536371972476687e+01  9.9532752781418452e+01  9.0546747855386229e+01  8.7554857078932898e+01  1.9824777833543197e+02  1.9254080276246478e+02  1.8983834462198004e+02  1.8683597990424892e+02  1.9554506378872802e+02  1.2114047924611326e+02  1.2657936120604744e+02  1.2931361149003695e+02  1.3201941285919756e+02  1.2387462601394132e+02  5.5043489258407519e+01  6.0472462492227081e+01  6.3201004183881963e+01  6.5902571973235069e+01  5.7771947091967995e+01  1.6521040609848234e+02  1.5711360703631158e+02  1.6286387715678467e+02  1.5946034031568573e+02  1.5371107815073057e+02  2.1909412605236622e+02  2.2198679938179257e+02  2.2379208969419369e+02  3.4140082743273996e+02  3.4412221658243578e+02  3.4593021259084753e+02  4.6611044506664507e+02  4.6269726642079485e+02  4.6139727640323622e+02  2.7483327814851020e+02  2.7813987907569714e+02  2.7949767309138230e+02  3.0867151431627536e+02  3.1131641121096953e+02  3.1301169997252651e+02  2.8313396678121012e+02  2.8445969061769512e+02  2.8747738060830113e+02  3.9781757178040846e+02  4.0658213949255315e+02  4.0070676255642724e+02  4.0369189191867940e+02  4.0956646131405529e+02  5.6548484555615664e+02  5.5953209191639291e+02  5.5661564277746641e+02  5.5358151790629302e+02  5.6256828747182612e+02  2.1260012205291311e+01  2.5577961171778810e+01  2.1391828495062609e+02  2.1546663793277423e+02  3.0252508442528239e+02  3.0754410818073899e+02  3.0412891732306025e+02  3.0913502851775706e+02  1.1450184519587965e+02  1.1948987435662738e+02  1.1609404201519173e+02  1.2106387941370629e+02  4.8048719386364331e+02  4.8553352634177082e+02  4.8209654803388065e+02  4.8711997575863541e+02  1.3871158940311116e+02  1.3371704380012753e+02  1.3711286510032923e+02  1.3213678705804986e+02  5.3841410786412212e+02  5.3679970124113413e+02  5.0495551542260716e+02  4.9990901494173471e+02  5.0334150055836267e+02  4.9832033140849870e+02  7.2579483604019430e+01  6.7593892042320022e+01  7.0982770319000707e+01  6.6016489244183560e+01  4.8413936691792252e+01  5.3393120058088435e+01  5.0003334518333283e+01  5.4964218699338637e+01  1.7182409122341841e+02  1.7022632185309533e+02  3.3585121131896403e+02  3.3740639724365684e+02  3.8090038933334847e+02  3.7740807625183390e+02  3.7583402677970065e+02  3.8249252753536837e+02  4.2630298770344655e+02  4.2974357506622169e+02  4.3138876261422809e+02  4.2464724515407255e+02  5.8245082476562720e+02  5.8597109768443113e+02  5.8754174851974653e+02  5.8085633014319137e