<?xml version="1.0"?>
<VTKFile type="UnstructuredGrid"  version="0.1"  >
<UnstructuredGrid>
<Piece  NumberOfPoints="2690" NumberOfCells="4864">
<Points>
<DataArray  type="Float64"  NumberOfComponents="3"  format="ascii">-5.029183102583473 22.00640775518491 0  -5.627129534590852 21.26897319248483 0  -5.028598517369165 21.50693450444703 0  -5.027932087430504 21.00645128491506 0  -5.627697193064899 21.76908751298419 0  -6.226235846229049 21.53073128347473 0  -9 21.99999999996945 0  -8.401135429450898 21.26383926493117 0  -9 21.49999999997139 0  -9 20.99999999997333 0  -8.401236413756109 21.76383173973749 0  -7.802377382059658 21.52764687053804 0  -9 32.9999999999446 0  -8.403355130098502 32.26381847414806 0  -9 32.49999999994358 0  -9 31.99999999994255 0  -8.403456170554804 32.76382030390598 0  -7.806816514406684 32.52762563556085 0  -5.04391868645652 33.00693135828516 0  -5.55713103287786 32.30321657459383 0  -5.043304777974587 32.50784973919477 0  -5.042610783650512 32.00671173301488 0  -5.557715376969615 32.80339281177588 0  -6.071537079787052 32.59886191511978 0  -5.072269013137968 54.00662529998665 0  -5.665284577335547 54.74381358208033 0  -5.664726456457744 54.24408830459819 0  -6.257122311209585 54.48058435088208 0  -5.072905400476209 54.50709999056561 0  -5.073504915527677 55.00669148685809 0  -9 54.99999999998974 0  -8.47955022963294 54.29724608397077 0  -9 54.49999999998872 0  -9 53.99999999998769 0  -8.479637688784765 54.79721918322458 0  -7.959205637013171 54.59444690559661 0  -9 39.99999999995897 0  -8.405070453671064 40.73879826802867 0  -8.404969427137813 40.23879955181459 0  -7.810035122339271 40.47758031260577 0  -9 40.49999999996 0  -9 40.99999999996102 0  -5.054660791453436 41.00614524254739 0  -5.622423716166972 40.2744278041727 0  -5.054053682120805 40.50713371549737 0  -5.053408514018184 40.00691994333548 0  -5.62299299266926 40.77432333389427 0  -6.191367554359014 40.54138269020225 0  -9 55.99999999999179 0  -8.432647351167223 56.74452916456902 0  -8.432560697756486 56.24451229708983 0  -7.865212199149363 56.48902391520283 0  -9 56.49999999999282 0  -9 56.99999999999384 0  -5.074953500280807 56.00633489037796 0  -5.643196680664584 56.74967189702937 0  -5.642641798244605 56.24964558278587 0  -6.210249860867171 56.49216671852817 0  -5.075629932552247 56.5073120324654 0  -5.076226962241499 57.0067101377941 0  -7.459916375430921 43.00362644342533 0  -6.624291321772178 43.11383388201801 0  -7.225036501200981 43.34157835369855 0  -6.990209997874595 43.67953568628148 0  -6.859118956094733 42.77584270179951 0  -6.258227789667582 42.54805957723173 0  -6.602362607165604 49.0068354338352 0  -7.436317535916749 48.89624563367868 0  -6.836713916032988 48.66883497954559 0  -7.071121813272249 48.33081460535667 0  -7.201913629099594 49.23423213789659 0  -7.801369961142 49.46167792342167 0  -6.599903720086471 46.00642257261428 0  -7.434715362777233 45.8959801737797 0  -6.834500122139547 45.66834889783927 0  -7.069151725485369 45.33030825800038 0  -7.200067782251164 46.23401646349826 0  -7.800138480807249 46.46158606403615 0  -6.568123547634583 7.006658207212475 0  -7.413990733081161 6.89616442151652 0  -6.805831651152642 6.668653922670132 0  -7.043594978175807 6.33065133305334 0  -7.176231468293536 7.234166284302621 0  -7.784246619252335 7.461669119982951 0  -7.453102950263292 30.0035856340391 0  -6.613779230630815 30.11374389040745 0  -7.217184239773594 30.34144023498378 0  -6.981319634158313 30.6792730825274 0  -6.849646286843789 29.77586813614914 0  -6.246094843568882 29.54818530008745 0  -6.565748350893849 4.00634125448047 0  -7.41256505846765 4.112307753147697 0  -6.804172496151693 4.343113933616572 0  -7.042546032987798 4.679865473616857 0  -7.174194840218368 3.775542906044116 0  -7.782721268920434 3.544786653323444 0  -6.57054331873538 10.00671731701133 0  -7.415680671463591 10.11255907820872 0  -6.808504221022092 10.34340588672531 0  -7.046413203307531 10.68009457329772 0  -7.177767920809328 9.775876587198491 0  -7.785085863671931 9.545028423000399 0  -6.572968708419973 13.00677400087003 0  -7.417148043999731 12.89625774610559 0  -6.810200173374934 12.66877191273208 0  -7.047486534298886 12.33077210612507 0  -7.179864403853704 13.23426762344428 0  -7.786668530078868 13.46174187237097 0  -6.575403491054537 16.00687769080281 0  -7.418736858438957 15.89628771821576 0  -6.812395821933014 15.66888309887471 0  -7.049443839901067 15.33087198679156 0  -7.181692696870336 16.23427418523349 0  -7.787888490867701 16.46170950390586 0  -6.577862315873734 19.00615871589541 0  -7.42045654213784 19.1121239077383 0  -6.815116362003169 19.34273826647838 0  -7.052314449180973 19.67935648611529 0  -7.183254416423758 18.77548615595816 0  -7.788741931961972 18.54479562258816 0  -6.584386000199865 27.00592810285932 0  -7.424710906331551 27.1119792279857 0  -6.820997414232842 27.34263707328649 0  -7.057555435328053 27.67935522665912 0  -7.188150100043026 26.77522485102792 0  -7.792007048219103 26.54457537289679 0  -8.273758718151001 19.09571549886869 0  -8.031273103823002 18.82024542802183 0  -8.39431526112439 18.2724156833792 0  -8.636811804064505 18.54788574818147 0  -9 17.99999999998495 0  -8.275715112075408 27.09564275147268 0  -8.033883523593706 26.82010984716867 0  -8.395948472589708 26.27228183361818 0  -8.637790816318041 26.54782019891095 0  -9 25.99999999995395 0  -8.272975241948988 15.90813950526811 0  -8.030409255134128 16.1849281484166 0  -8.39399946917406 16.73084017611104 0  -8.636554543611924 16.4540591693305 0  -9 16.99999999998883 0  -5.763626647014958 30.10173369330393 0  -6.004836519424683 29.82495111984774 0  -5.642397251132314 29.2787965570471 0  -5.401171967668775 29.55587977274454 0  -5.038508545186017 29.0063967719361 0  -8.272244449406383 12.90813716022315 0  -8.029434046495412 13.18493816606243 0  -8.393388959840527 13.7308737237742 0  -8.63618868021601 13.45407168475771 0  -9 13.99999999999401 0  -8.271562937595172 10.09591933242546 0  -8.028346602666423 9.820474149968916 0  -8.392488219481038 9.272513141910247 0  -8.635715412103709 9.547958387053415 0  -9 8.99999999999857 0  -8.270135094228332 4.095800398634683 0  -8.026448470491697 3.820298890153852 0  -8.391316234601728 3.272384018876045 0  -8.635008583264653 3.5478868896522 0  -9 2.999999999998668 0  -8.270793361094764 6.908090456331598 0  -8.027497667966134 7.184878510711524 0  -8.392177761171126 7.73083648731182 0  -8.635462590512692 7.454049138955511 0  -9 7.999999999999485 0  -8.280321840481482 45.90800557790508 0  -8.040207619531021 46.18478841969328 0  -8.400124404342597 46.73080457641175 0  -8.640227676475373 46.4540223870623 0  -9 46.99999999997333 0  -8.281058442371915 48.9081164837124 0  -8.041191333355076 49.18490076208997 0  -8.400740663530115 49.73082392621433 0  -8.640596825520682 49.45404896630566 0  -9 49.99999999997949 0  -5.777890286186572 43.10181047558326 0  -6.018034398368867 42.82493164733574 0  -5.657189879574951 42.27858123337389 0  -5.417031839748105 42.5557953834947 0  -5.055955241160667 42.00613936742995 0  -5.752169713953604 23.9242308002219 0  -5.999225605808328 24.19127587767677 0  -5.639703341590598 24.73387639284827 0  -6.246233832757123 24.45834170789815 0  -5.392676150765453 24.4671350436087 0  -5.033273287233682 25.0063766837301 0  -8.286505223650606 52.08546799080909 0  -8.041981288377766 51.81838453601422 0  -8.39864926500219 51.27567707547256 0  -7.797412264472399 51.55131909330431 0  -8.64318595144508 51.54276013417425 0  -9 50.99999999998153 0  -5.767701705569092 38.09149557846686 0  -6.013031211441501 37.82302397542758 0  -5.653921040938678 37.28185531484463 0  -6.258408110436851 37.55457624785525 0  -5.40857450229197 37.55068880729485 0  -5.049223508805204 37.00585410202294 0  -5.764225358662164 34.924168095746 0  -6.010367753940704 35.19116757876409 0  -5.652187125690913 35.73368894874329 0  -6.256462563385231 35.458187223511 0  -5.40606932510615 35.4670377232447 0  -5.048018386611786 36.0060946867295 0  -7.902603017629652 50.50314691015616 0  -7.849998050809539 51.02724103100132 0  -8.451348555093537 50.75155661971544 0  -6.151450934590036 36.50632812093379 0  -6.204936780010665 37.0304121409207 0  -5.600344496131707 36.75722733520379 0  -6.20394883385914 35.98221745452634 0  -5.599774688655444 36.25716122708008 0  -6.002095652863402 25.26691798351264 0  -6.124150335067233 24.86264430645419 0  -5.517702564850169 25.13781634409144 0  -8.03582425096014 25.74811606678443 0  -7.913899276467277 26.14634552046709 0  -8.517932637372367 25.87405905924721 0  -6.965896127733108 34.38057244294045 0  -6.611113276702823 34.91941524400583 0  -6.865320040115527 35.24333471452151 0  -7.220110559057408 34.70454413093471 0  -7.474268528644512 35.02850454908826 0  -7.091819011635498 52.62875487837787 0  -7.444549718148012 52.09007078873002 0  -7.191857215425888 51.76625028950183 0  -6.839133378894701 52.30495346758346 0  -6.586390816201654 51.98117066230207 0  -6.968832075941386 38.6287277757321 0  -6.613685890673977 38.09168868484931 0  -6.867147408170134 37.76651869633694 0  -7.222286330120132 38.30361310368787 0  -7.475796874299162 37.97848510551466 0  -6.958319592011659 23.38060706609129 0  -6.602211253621387 23.91949599854711 0  -6.857362414437087 24.24344414530179 0  -7.213478783703402 23.70459958581439 0  -7.468581838665799 24.02857415997796 0  -7.890397682124637 17.50300024455519 0  -7.839560486143215 18.02390743612847 0  -8.445245741532664 17.75148264504514 0  -7.839151949849519 16.98235837372656 0  -8.445151968951551 17.25150975324418 0  -7.887057013998207 8.50307076012974 0  -7.836062650820874 9.024050192433013 0  -8.443574480687097 8.751536076411842 0  -7.932202988892096 2.418264410346579 0  -7.857443257889277 2.981517394984497 0  -8.466145162880407 2.709141257120614 0  -7.8356606597662 7.982371622976081 0  -8.443482262838325 8.251533215788033 0  -7.851995618618692 49.98241620715142 0  -8.451254158389027 50.2515832570199 0  -6.067850404111022 41.59931470039885 0  -6.163053418154212 42.07371396581576 0  -5.
[...]
<PointData  Scalars="f_29"> 
<DataArray  type="Float64"  Name="f_29"  format="ascii">2.4955324161104448e+02  2.4104580321384040e+02  2.4377386820181164e+02  2.3800255071379331e+02  2.4678975262225302e+02  2.4405795087020954e+02  2.4952764138045913e+02  2.4101821578428468e+02  2.4374724305480049e+02  2.3797483911517105e+02  2.4676196637923178e+02  2.4404143652064047e+02  3.7598792934739413e+02  3.6740504379359527e+02  3.7015599914972711e+02  3.6433333237248058e+02  3.7319894718040968e+02  3.7045492280944757e+02  3.7598916946227888e+02  3.6783180402213026e+02  3.7018787075557236e+02  3.6439697493935955e+02  3.7361255430050352e+02  3.7125569285602091e+02  6.2039026991758453e+02  6.2913553436859604e+02  6.2323867024492461e+02  6.2603557724534710e+02  6.2631199759904973e+02  6.3225789504346142e+02  6.3220602628516451e+02  6.2391163587866674e+02  6.2630877848942282e+02  6.2041005662926557e+02  6.2979986052719755e+02  6.2740704706311715e+02  4.5691608261563431e+02  4.6556761925386445e+02  4.5973662786736088e+02  4.6251196203740750e+02  4.6278569063881787e+02  4.6864716675251105e+02  4.6866948667701774e+02  4.6011727630753387e+02  4.6282078411891808e+02  4.5696201953047904e+02  4.6595119422832136e+02  4.6324257843042750e+02  6.4394053586894188e+02  6.5274479031750923e+02  6.4684512622339491e+02  6.4971669521616570e+02  6.4984936729526146e+02  6.5579161887683370e+02  6.4397625453155956e+02  6.5277015428638117e+02  6.4687239008743791e+02  6.4973334652916321e+02  6.4988084020809083e+02  6.5582348524701843e+02  4.9189560605642413e+02  4.9316067463123221e+02  4.9582207954415873e+02  4.9975056369459588e+02  4.8923534576806776e+02  4.8657682187257581e+02  5.6184816279994936e+02  5.6057532739646922e+02  5.5790428198231450e+02  5.5396156084414372e+02  5.6452052801440243e+02  5.6719030838885647e+02  5.2684186250273831e+02  5.2556814696746858e+02  5.2290812307322710e+02  5.1897436077175939e+02  5.2950317463722490e+02  5.3216362380902228e+02  7.8884274876037480e+01  7.7649216437601410e+01  7.5070447162552540e+01  7.1257394283242590e+01  8.1464496553396174e+01  8.4042601931009571e+01  3.4131281261951995e+02  3.4256624790708344e+02  3.4520128047799903e+02  3.4909248746883594e+02  3.3868074257187595e+02  3.3604881293915821e+02  4.5030559891587082e+01  4.6242174880610321e+01  4.8830822389765352e+01  5.2631691898866571e+01  4.2442834704009179e+01  3.9856361285522098e+01  1.1282541828400433e+02  1.1404388541270936e+02  1.1664485786457128e+02  1.2046452908152796e+02  1.1022545903454532e+02  1.0762778994325394e+02  1.4684361407500529e+02  1.4560320075852002e+02  1.4301165438873568e+02  1.3918046646502304e+02  1.4943622195874823e+02  1.5202719995914160e+02  1.8094296177641385e+02  1.7970254811384072e+02  1.7710125516952144e+02  1.7326070158355409e+02  1.8354548610047220e+02  1.8614535319518072e+02  2.1514532507501954e+02  2.1637861001093921e+02  2.1899867477880940e+02  2.2285403512706617e+02  2.1252812193504604e+02  2.0991131526002982e+02  3.0681548016507151e+02  3.0805440082219502e+02  3.1068994987744480e+02  3.1456584097358376e+02  3.0418171832783929e+02  3.0154720766312062e+02  2.1620816305923006e+02  2.1306083209851059e+02  2.0682833805424698e+02  2.0996861797586223e+02  2.0376530292367499e+02  3.0788434170146002e+02  3.0471602477816930e+02  2.9843954638789899e+02  3.0160095610971069e+02  2.9534515077723921e+02  1.7985291810526405e+02  1.8299844292892973e+02  1.8921253213974330e+02  1.8606431937378792e+02  1.9224721087407323e+02  3.4240133712169865e+02  3.3922628682376006e+02  3.3294766859425118e+02  3.3610721600342583e+02  3.2986283580459224e+02  1.4575151805512135e+02  1.4888867124368272e+02  1.5508428452578798e+02  1.5195156893042687e+02  1.5812677711967251e+02  1.1387453165979898e+02  1.1075200220153991e+02  1.0456783574900953e+02  1.0768345186222770e+02  1.0152806102421063e+02  4.6073913783578298e+01  4.2965423434688965e+01  3.6805750637630943e+01  3.9914379703264288e+01  3.3785831058978722e+01  7.7794793844047419e+01  8.0918133760959876e+01  8.7085492834824606e+01  8.3960048279111021e+01  9.0096445537805891e+01  5.2572181989291039e+02  5.2894195441084275e+02  5.3530308577496692e+02  5.3208733000297980e+02  5.3842790530952357e+02  5.6073042733909074e+02  5.6395966313063082e+02  5.7034000045941752e+02  5.6710806025208137e+02  5.7345748735951179e+02  4.9299665403296984e+02  4.8978809093439031e+02  4.8344680703380294e+02  4.8663923515578017e+02  4.8033779645769658e+02  2.7143729156414219e+02  2.7450670747268452e+02  2.8071787644329942e+02  2.7757597427765120e+02  2.7764311671964691e+02  2.8384824250944621e+02  5.9793525088138392e+02  5.9480133081213978e+02  5.8846278611157084e+02  5.9166602493027187e+02  5.9158918232707174e+02  5.8527952345333074e+02  4.3476253546313620e+02  4.3166274508585639e+02  4.2540872052439170e+02  4.2856130005139448e+02  4.2849030280122491e+02  4.2227944597753856e+02  3.9808331488121615e+02  4.0118173424629902e+02  4.0744679748751406e+02  4.0428012186986683e+02  4.0433666592605346e+02  4.1058574134698989e+02  5.7938356537654636e+02  5.8552691501816389e+02  5.8230917795364235e+02  4.1642605960882122e+02  4.2249566935212238e+02  4.1933242985749712e+02  4.1034844450423276e+02  4.1352426424545757e+02  2.8685412676567245e+02  2.8221273622271235e+02  2.8537031012250048e+02  2.9240755614191954e+02  2.9697830671487122e+02  2.9385992290558329e+02  3.9184315520829733e+02  3.9806016361448206e+02  4.0181253409755624e+02  3.9559325960376754e+02  3.9934395728481843e+02  6.0428013728807503e+02  5.9796969998135762e+02  5.9416747378430352e+02  6.0047518566509598e+02  5.9667143584809594e+02  4.4101903193006166e+02  4.3478570574044164e+02  4.3102362214992047e+02  4.3725412021103443e+02  4.3348981336769543e+02  2.6524534522319647e+02  2.7140886336601682e+02  2.7512614649333074e+02  2.6896079707629480e+02  2.7267612316255224e+02  1.9801977110067025e+02  2.0396749504054310e+02  2.0087003791143971e+02  1.9207829265518575e+02  1.9515224674721046e+02  9.5827732694080794e+01  1.0173004081843193e+02  9.8655111488772718e+01  2.7162559761867655e+01  3.3512212879752397e+01  3.0456814042789809e+01  8.9931089738296890e+01  9.2980612372359431e+01  5.7328262201413770e+02  5.7643915885565036e+02  4.7555369283291816e+02  4.8106604305527929e+02  4.7792996776057237e+02  2.8031288013616518e+02  2.7894530549055975e+02  2.7649324559361224e+02  5.8730488647946470e+02  5.8948509751913957e+02  5.9198769229904599e+02  4.2426130184131119e+02  4.2641123327776211e+02  4.2887450405571724e+02  4.0859470992962815e+02  4.0643838298152417e+02  4.0396811962133665e+02  3.2681489127829337e+02  3.3143231130502539e+02  3.2832401842821525e+02  5.0017010541432774e+02  4.9336945736247708e+02  4.9996128250849182e+02  5.5354121172233658e+02  5.6036362733250553e+02  5.5375114762207158e+02  5.1855040857987740e+02  5.2535572979998062e+02  5.1876222071956374e+02  7.0846013459743915e+01  7.7442260596932982e+01  7.1052024000355118e+01  5.3021644628312515e+01  4.6438292631399904e+01  5.2827273453272994e+01  3.4959907501896708e+02  3.4281905251497125e+02  3.4934760581088580e+02  1.2085641785370868e+02  1.1424124691195303e+02  1.2066113810793074e+02  1.3876782606375770e+02  1.4539584102366203e+02  1.3897441806481640e+02  1.7285070141933335e+02  1.7949600871752943e+02  1.7305548493056520e+02  2.2334306459549848e+02  2.1662497874534375e+02  2.2310060325723589e+02  3.1496685287660301e+02  3.0825551605002073e+02  3.1476711566579024e+02  2.9780636342926101e+02  2.9967639384341317e+02  3.0231106647973473e+02  2.0573246696915587e+02  2.0782162314504697e+02  2.1043852068660138e+02  1.9024663953416967e+02  1.8819668034673890e+02  1.8559408348223619e+02  3.3217369121887856e+02  3.3411160602445472e+02  3.3674255926873286e+02  1.5599224515013736e+02  1.5401009871130412e+02  1.5141721518542957e+02  1.0356611627063292e+02  1.0559658971454836e+02  1.0819530537275631e+02  3.7294907780178384e+01  3.8575396713674351e+01  4.1162710820360815e+01  8.8115791771802392e+01  8.6079884909982823e+01  8.3499052915028514e+01  4.8264450472789133e+02  4.8461061634126355e+02  4.8727014376373933e+02  5.7140057184210320e+02  5.6929615074336596e+02  5.6662356176148353e+02  5.3623341005189604e+02  5.3419884008540112e+02  5.3153679433180537e+02  4.6939799637088169e+02  4.7211017905550165e+02  6.3810710553223589e+02  6.3207272310827909e+02  6.3515874774422809e+02  6.3808772101904174e+02  6.3274719753067211e+02  6.3514363737648137e+02  6.4390213604481323e+02  6.4101239965853972e+02  6.4392047000336333e+02  6.4103828583691597e+02  1.5906265710728061e+01  2.3225362465265018e+01  1.7598022459904293e+01  1.9288364080042996e+01  2.1531095593572402e+01  6.8208731817117678e+02  6.8212081492786410e+02  6.8662845896893782e+02  6.8215292458541467e+02  6.8659680084260594e+02  6.9110744631630359e+02  6.8208912132684873e+02  6.8212247765727773e+02  6.8662964584880706e+02  6.8659807640488566e+02  6.9110744631630359e+02  6.6380247202812939e+02  6.5675878133597632e+02  6.5978513089690341e+02  6.6381315623911883e+02  6.5677445574835315e+02  6.5980550368049421e+02  8.7052545923514977e+00  8.7349365287702252e+00  4.3823046099915199e+00  8.7649977562297128e+00  4.3524770437703495e+00  0.0000000000000000e+00  2.5339074755603212e+02  2.4914162486169724e+02  2.5424067641366892e+02  2.4829322908433434e+02  2.5254723951696232e+02  3.7987954289285778e+02  3.7559324111104212e+02  3.8073000879336945e+02  3.7474366937584387e+02  3.7903474187246013e+02  4.5302670751037135e+02  4.5734347593195105e+02  4.5217676678160188e+02  4.5819120902034001e+02  4.5386992554773713e+02  6.1729777959472892e+02  6.2166788526703635e+02  6.2000490226880913e+02  6.1564256748285027e+02  6.1397875334539685e+02  8.5994086059125010e+00  8.6820123040178707e+00  4.3828591236185277e+00  4.2989752049587029e+00  0.0000000000000000e+00  2.3484657339019500e+02  2.3945329896819575e+02  2.3643662263220699e+02  3.6116298553645845e+02  3.6580905456253066e+02  3.6275760712440422e+02  4.7172807279331863e+02  4.6711946573185622e+02  4.7017817346355122e+02  6.3207026386144014e+02  6.3810582395164431e+02  6.3810184295733529e+02  6.4390843842971867e+02  6.3809639404217364e+02  6.4391665752525989e+02  6.3275309249806355e+02  4.6884879611743850e+02  4.7500249665089279e+02  4.7445384212267857e+02  2.4169490717923992e+02  2.4286698925001315e+02  2.4796952632672810e+02  2.4287529201259815e+02  2.4914953396003449e+02  3.6730253725638750e+02  3.6887733984964154e+02  3.7401733919405450e+02  3.6927855124947575e+02  3.7599167626343797e+02  6.2409483200274315e+02  6.2506685454863555e+02  6.1903550371637630e+02  4.6491349556321296e+02  4.6407807933253656e+02  4.6968436243579168e+02  4.5770581321079140e+02  4.5854281870167375e+02  4.6371437984074521e+02  6.4867408683908911e+02  6.4920447811495831e+02  6.4338748116088084e+02  6.4919615616271244e+02  6.5434677653042331e+02  6.5382389927884060e+02  6.5897249356122893e+02  6.2575107207407507e+02  6.3109736926155631e+02  6.5435434953689662e+02  2.5405301013005388e+02  2.4905715782825993e+02  2.5414471319239914e+02  3.8054540399435911e+02  3.7590132487191835e+02  3.8063639233769942e+02  4.5238488386066865e+02  4.5781212458562698e+02  4.5228497800286561e+02  2.0187779560007209e+02  1.9413101133343463e+02  9.9698647849063576e+01  3.2230691022824459e+01  9.1969523012271679e+01  5.7538990288444188e+02  6.2011990063906455e+02  6.1506347611788226e+02  6.1614390807290931e+02  6.2177381935688993e+02  1.9802873819399119e+02  1.9413700096745106e+02  1.9802494608917291e+02  2.0188039904729985e+02  9.5839155177514357e+01  9.1976864345807158e+01  9.5834010277010805e+01  2.8125879501230678e+01  3.2710671462117219e+01  2.7645438584803159e+01  9.9702532296266568e+01  5.7939020026162348e+02  5.7539462543772572e+02  5.7938756422823599e+02  2.3110145410903127e+02  2.3827375810943147e+02  2.3639724603620886e+02  2.3297661828736284e+02  3.5740825035839026e+02  3.6423480733240547e+02  3.6235465886481887e+02  3.5928763717897380e+02  4.6831810282660689e+02  4.7308881929788618e+02  4.7909776091717180e+02  4.7854986960671386e+02  6.7478940474803119e+02  6.6705163332090638e+02  6.7254664061758183e+02  6.7030454210815003e+02  6.6929662952643639e+02  6.7478877515350769e+02  6.6705501531996777e+02  6.7254681023138539e+02  6.6929987084574623e+02  6.6139011092744522e+02  6.6138414419918342e+02  1.6208068883496065e+02  1.5705180948337110e+02  1.6012199537637227e+02  5.4248476371281072e+02  5.3732199230128231e+02  5.4047444536163744e+02  5.8334583639334505e+02  4.1250677811770970e+02  4.2034424092099903e+02  5.8334735851935659e+02  4.1641359306619069e+02  4.1250397917180715e+02  4.1641915527680271e+02  4.2033763897865629e+02  2.8959626275096758e+02  2.9510712435133235e+02  2.9370154946578862e+02  2.9100143859515407e+02  3.4132175491522258e+02  3.3557730352883419e+02  3.4186395117099505e+02  1.8090949255187670e+02  1.8038159023916620e+02  1.8658516988420769e+02  2.1512857070889820e+02  2.0943952176156958e+02  2.1566875112826807e+02  3.0679815435712931e+02  3.0106696780128880e+02  3.0734179448391450e+02  4.5008852419916181e+01  3.9389723741217132e+01  4.5542047649241098e+01  7.8842426010462390e+01  7.8318605550270007e+01  8.4476803067269074e+01  1.1280322800899079e+02  1.0715819567656074e+02  1.1333947000416505e+02  1.4680638440832769e+02  1.4627934138307054e+02  1.5247037201674092e+02  5.2680620617161696e+02  5.2626446403220200e+02  5.3262065939600677e+02  5.6181569855425903e+02  5.6127348240888534e+02  5.6764331109018462e+02  4.9190672321477962e+02  4.8610507328070531e+02  4.9245440989904307e+02  2.3784676315322793e+02  2.3255101275429575e+02  2.3399538725317788e+02  3.6387210701384788e+02  3.5892534510374617e+02  3.6043916173365272e+02  3.2284805154009337e+02  3.1912493531300333e+02  3.2328427555813659e+02  3.1868870719025642e+02  3.2241246435932197e+02  5.0894135450900075e+02  5.0476742890699472e+02  5.0936146673038661e+02  5.0434378307254212e+02  5.0852407351451382e+02  5.0978267042902303e+02  5.1395522696883836e+02  5.1437831314661105e+02  5.1020516179277723e+02  3.2949348316079391e+02  3.2504824641543166e+02  3.2772896117543428e+02  2.3901782076985947e+02  3.6584715186179733e+02  2.3706202637940798e+01  2.5104194050041306e+02  3.7751608565810591e+02  6.1884182211557095e+02  4.5538907186613920e+02  2.3599335475042992e+02  3.6242216048717722e+02  2.8358204750552017e+02  2.8495407204938579e+02  2.8822560157881082e+02  3.9082756077410750e+02  3.9754968448709269e+02  3.9133523399286184e+02  6.0530579737423648e+02  5.9848357968692596e+02  6.0479508044681825e+02  4.4191006516774593e+02  4.3523163504152444e+02  4.4146614208100709e+02  2.6437602167828987e+02  2.7097209684919915e+02  2.6481049778858778e+02  1.2981139209828876e+02  1.3429286561961459e+02  1.2981864417491391e+02  1.3428577444751937e+02  1.2980402656543293e+02  1.2533693576344426e+02  1.2532945122857807e+02  6.1933149701203448e+01  6.6393009424375791e+01  6.1940554158409931e+01  6.6385672938683115e+01  6.1925804894610415e+01  5.7480407383953981e+01  5.7473023678418762e+01  6.6463965438319099e+02  2.7239902456133757e+02  2.7192186370303824e+02  2.7811518811587001e+02  5.9694569165046494e+02  5.9110533669235724e+02  5.9743969369414947e+02  4.3379481955447574e+02  4.2801785802748941e+02  4.3427968419049751e+02  3.9904990089769774e+02  3.9856959468301983e+02  4.0481330729356063e+02  3.3030173574617424e+02  3.2679257824889754e+02  3.2635699811534295e+02  5.1625578430837140e+02  5.1280797988166012e+02  5.1238928094446476e+02  5.0247071933926890e+02  5.0591614073546151e+02  5.0633689113377869e+02  1.6471236861467600e+02  1.5903573152527301e+02  1.6035171010018388e+02  1.6339763857831053e+02  5.4518558478749571e+02  5.3935826337931132e+02  5.4070886163219416e+02  5.4383621254562229e+02  0.0000000000000000e+00  0.0000000000000000e+00  4.3824832967086405e+00  6.9110744631630359e+02  6.9110744631630359e+02  6.8662966000258518e+02  6.9110744631630359e+02  0.0000000000000000e+00  2.5180852809083387e+02  3.7827464497370363e+02  6.1827937020463662e+02  4.5468635173603701e+02  6.7843786749366996e+02  6.7846950149856093e+02  6.7843956460700269e+02  6.7847044445429367e+02  3.4263486749018931e+01  2.9002491401179352e+01  3.4031428318725240e+01  3.3818594504892872e+01  2.9241517925581853e+01  2.4213956767955150e+01  2.5921392987455300e+02  2.5930833063135526e+02  3.8568629309331897e+02  3.8577875752407044e+02  4.4714719781649643e+02  4.4704282236605400e+02  6.1072236224128471e+02  6.0964277637898010e+02  2.2866641450891007e+02  2.2722207497535203e+02  3.5501667934238367e+02  3.5350481540060724e+02  2.2465885913492038e+01  2.3354045164910307e+01  2.8135324943655938e+01  1.2304247089144612e+01  1.2336477860386742e+01  1.6746691079289099e+02  1.6877995968249951e+02  5.4801412844799131e+02  5.4936175513964997e+02  1.5350248253147122e+01  1.1973566903017943e+01  1.2057395438731836e+01  1.6581258039377425e+02  1.7120032953070444e+02  1.6957317802839117e+02  5.4631623381404984e+02  5.5184723866549905e+02  5.5017615583653298e+02  2.6194340629003409e+02  2.5809137519173959e+02  2.5724474602793651e+02  3.8865486915277211e+02  3.8469175380768741e+02  3.8384402917241653e+02  4.4420939861983521e+02  4.4819257383280882e+02  4.4903976792514248e+02  6.0787935994133488e+02  6.1092935887505189e+02  6.1258590616884374e+02  2.3026285637024523e+02  2.2493800225513380e+02  2.2650779889138894e+02  3.5663996042602781e+02  3.5122080036673276e+02  3.5282341090858216e+02  2.2006409370685329e+01  1.6383327598846602e+01  1.6857344893156938e+01  5.5015284684030280e+02  5.4407495221606143e+02  5.4159122834197228e+02  5.3799898321186163e+02  5.4766950449825890e+02  9.5849342486700692e+01  9.8919592164731696e+01  1.0199975814979615e+02  9.2769566567304494e+01  8.9701206152842289e+01  2.0361059082068357e+02  1.9772399740216474e+02  1.9493392662437824e+02  1.9184104886674598e+02  2.0081991211305234e+02  1.2420287310674686e+02  1.2979467866199701e+02  1.3260328331668069e+02  1.3538962088104304e+02  1.2701076681791191e+02  5.6352200307958135e+01  6.1917459742200258e+01  6.4712136826292294e+01  6.7485577142229189e+01  5.9146394595370104e+01  1.6955097396421729e+02  1.6121131083033384e+02  1.6713201269021556e+02  1.6363057946821783e+02  1.5771183229954482e+02  2.2513183770958827e+02  2.2811829634532143e+02  2.2998687247618079e+02  3.5175348983889762e+02  3.5458209856131487e+02  3.5645637028782699e+02  4.8156769924821202e+02  4.7800938352405467e+02  4.7664943917999102e+02  2.8274664764369481e+02  2.8617239281943040e+02  2.8757461717134430e+02  3.1780938489956156e+02  3.2054847433985714e+02  3.2231096973718212e+02  2.9135302085883211e+02  2.9272126470976565e+02  2.9584826423215367e+02  4.1039148971318139e+02  4.1951751126049453e+02  4.1340185841206136e+02  4.1650586434555726e+02  4.2262152487434014e+02  5.8551162825242341e+02  5.7927181489203315e+02  5.7621214895425862e+02  5.7303602040743067e+02  5.8245140963569020e+02  2.1751078439050620e+01  2.6171866887388386e+01  2.1977443275013755e+02  2.2136916103804799e+02  3.1142537850485184e+02  3.1662510133085328e+02  3.1308361839041743e+02  3.1827059359649371e+02  1.1736508902138314e+02  1.2248877857392409e+02  1.1899649533479804e+02  1.2410204748548762e+02  4.9658332075214850e+02  5.0185792891517383e+02  4.9826193011838529e+02  5.0351637457784187e+02  1.4225966221116011e+02  1.3711838099810629e+02  1.4060984017698718e+02  1.3548809231679553e+02  5.5713638982421446e+02  5.5544147147575779e+02  5.2213626283709459e+02  5.1685897845880368e+02  5.2044456917256468e+02  5.1519360735359635e+02  7.4320628520423327e+01  6.9204200554823416e+01  7.2678130621471439e+01  6.7582118025056118e+01  4.9547335201593164e+01  5.4646382929749208e+01  5.1171341830107906e+01  5.6251932268907048e+01  1.7635237179864291e+02  1.7470123604273124e+02  3.4599980366367384e+02  3.4761233773855906e+02  3.9279785230989830e+02  3.8917332884311310e+02  3.8754050327891798e+02  3.9445519819876523e+02  4.4005915633428287e+02  4.4365073870798966e+02  4.4536978909570115e+02  4.3833515965098758e+02  6.0328839903730682e+02  6.0698367067941331e+02  6.0862895214205355e+02  6.0161916655158154e