<?xml version="1.0"?>
<VTKFile type="UnstructuredGrid"  version="0.1"  >
<UnstructuredGrid>
<Piece  NumberOfPoints="2690" NumberOfCells="4864">
<Points>
<DataArray  type="Float64"  NumberOfComponents="3"  format="ascii">-5.001034071065666 22.00021196351546 0  -5.603975106142121 21.2627145947719 0  -5.001012757738894 21.50022941069735 0  -5.000989462403453 21.00021366822671 0  -5.603994991995333 21.76271833117751 0  -6.206957705839333 21.52519012568618 0  -9 21.99999999996945 0  -8.39702591163371 21.26254447110822 0  -9 21.49999999997139 0  -9 20.99999999997333 0  -8.397029453242745 21.76254421042371 0  -7.794055544036286 21.52508787197369 0  -9 32.9999999999446 0  -8.397103990113138 32.26254374518461 0  -9 32.49999999994358 0  -9 31.99999999994255 0  -8.397107536825608 32.7625438022176 0  -7.794211704575419 32.52508710924524 0  -5.001552521330936 33.00022949392582 0  -5.521022732372527 32.2965852187358 0  -5.001530236445546 32.50025994092078 0  -5.001506491304551 32.00022224643931 0  -5.521043118834455 32.79659109684559 0  -6.040535404901285 32.59291963118235 0  -5.002544031933854 54.00022003769467 0  -5.605312748438422 54.73770951894775 0  -5.605293214990791 54.2377187019442 0  -6.20804059664354 54.47518545836371 0  -5.002566004730943 54.50023510776825 0  -5.0025877521181 55.00022158580611 0  -9 54.99999999998974 0  -8.470272657532247 54.29615149277116 0  -9 54.49999999998872 0  -9 53.99999999998769 0  -8.470275683851398 54.7961506020189 0  -7.940548943831675 54.59230148231097 0  -9 39.99999999995897 0  -8.397164168321533 40.73754309985716 0  -8.397160623068096 40.23754313577618 0  -7.794324617176778 40.47508565351313 0  -9 40.49999999996 0  -9 40.99999999996102 0  -5.001929476973408 41.00020346793919 0  -5.578057568293089 40.26803766810144 0  -5.001907428185821 40.50023621352737 0  -5.001884969460292 40.00022963746533 0  -5.578077541775027 40.76803415216637 0  -6.154227885128044 40.53582746646823 0  -9 55.99999999999179 0  -8.422092164249477 56.74336521313021 0  -8.422089161835789 56.24336465965775 0  -7.844181473742245 56.48672928714796 0  -9 56.49999999999282 0  -9 56.99999999999384 0  -5.002637483665008 56.0002103821173 0  -5.580576173504509 56.74353584593729 0  -5.580556656677983 56.24353496362187 0  -6.15847349209749 56.48683360824671 0  -5.002660628077588 56.50024220051606 0  -5.002682298361058 57.00022217726001 0  -7.438290735942633 43.00012041741395 0  -6.590842886933302 43.10835844016059 0  -7.199913572630273 43.33747793392531 0  -6.961538309980585 43.67483565329984 0  -6.829218246479962 42.77099961615452 0  -6.220142394042401 42.5418787735213 0  -6.563905911913728 49.00022739699526 0  -7.411294843233713 48.89197647095259 0  -6.802264603878323 48.66286824562242 0  -7.040625204221 48.32550843095895 0  -7.172934348442386 49.22933515014369 0  -7.781959509333374 49.45844456176204 0  -6.563819531581439 46.0002135243171 0  -7.411238568037243 45.89196759304205 0  -6.802186716902567 45.66285195825203 0  -7.040555814003001 45.32549149423757 0  -7.172869615109134 46.22932792533901 0  -7.781916377846494 46.45844149387638 0  -6.562700801610991 7.000221797613882 0  -7.410509024514026 6.891974010720262 0  -6.801177521242634 6.662862517862821 0  -7.039656147466907 6.325503286693102 0  -7.172030549323645 7.229333227939449 0  -7.78135698658975 7.458444468049269 0  -7.438051604744905 30.00011898554708 0  -6.59047396522147 30.10835534741301 0  -7.199637940791924 30.33747322524878 0  -6.961226182671957 30.67482674773875 0  -6.82888584210131 29.77100040710983 0  -6.219716717473839 29.5418829585747 0  -6.562616160740692 4.000211130544018 0  -7.410458220299303 4.10830816190047 0  -6.801118401767545 4.337529474338281 0  -7.039618772410695 4.674847080183404 0  -7.17195797010226 3.770990093873319 0  -7.781302632295525 3.541770500584184 0  -6.562786675999728 10.000223854428 0  -7.410569013031031 10.10831666442943 0  -6.801272379623215 10.33753934364023 0  -7.039756191284053 10.67485481866467 0  -7.172085084543522 9.771001389893069 0  -7.781386777424093 9.541778687315286 0  -6.562872706044996 13.0002257121971 0  -7.410621073677079 12.89197716793781 0  -6.801332537208066 12.66286650062246 0  -7.039794264434997 12.32550736030301 0  -7.172159468797942 13.22933666240607 0  -7.781442937173478 13.45844693535865 0  -6.562958919442152 16.00022923401754 0  -7.410677273782653 15.89197816661745 0  -6.801410285111068 15.66287026141608 0  -7.039863556868514 15.32551072552342 0  -7.172224113012619 16.22933686945517 0  -7.781486027281497 16.45844582076597 0  -6.563045001484227 19.00020483261654 0  -7.410737489473138 19.10830188357264 0  -6.801505466342867 19.33751665155674 0  -7.039964017913579 19.67482977885331 0  -7.172278819426295 18.77098811678407 0  -7.781515925068509 18.54177077372729 0  -6.563274420285457 27.00019693208482 0  -7.410887087414411 27.10829690264782 0  -6.801712421815215 27.33751312954902 0  -7.040148510282926 27.67482962517871 0  -7.172450864885642 26.77097918137969 0  -7.781630620102342 26.54176325751298 0  -8.26929377621366 19.09396113260821 0  -8.025405644404007 18.81786561017698 0  -8.390756019159946 18.27088599076884 0  -8.634644533527222 18.54698151093287 0  -9 17.99999999998495 0  -8.269362556582971 27.09395862938291 0  -8.025497382163369 26.81786096997056 0  -8.390813367071125 26.27088143101993 0  -8.6346789241979 26.5469792744092 0  -9 25.99999999995395 0  -8.269266334336267 15.90616720519676 0  -8.025375387104571 16.18230663645231 0  -8.390744956368186 16.72922241424803 0  -8.634635522076625 16.45308324224241 0  -9 16.99999999998883 0  -5.732028123906146 30.09416075628472 0  -5.975871574136815 29.81802154991629 0  -5.610542429539822 29.27109735694197 0  -5.366698269155632 29.54724660828353 0  -5.001363107246762 29.00021155210728 0  -8.269240498368189 12.9061671380109 0  -8.025340924481206 13.18230699115206 0  -8.390723413116634 13.72922356226821 0  -8.634622603064697 13.45308367329247 0  -9 13.99999999999401 0  -8.269216317043002 10.09396805273097 0  -8.025302338872649 9.81787338055026 0  -8.390691451102679 9.270889306273228 0  -8.634605809765151 9.54698398068849 0  -9 8.99999999999857 0  -8.269165538477839 4.093964029217858 0  -8.025234814776253 3.817867448685587 0  -8.390649732817744 3.270884932850889 0  -8.63458065692889 3.546981560158673 0  -9 2.999999999998668 0  -8.269188995598737 6.906165557602058 0  -8.025272202177545 7.182304970411105 0  -8.390680430267171 7.729222299443678 0  -8.634596834619492 7.45308290920272 0  -9 7.999999999999485 0  -8.269524412699607 45.90616260176119 0  -8.025719600882791 46.1823018002959 0  -8.390960136910987 46.72922113240184 0  -8.63476456234666 46.45308195519772 0  -9 46.99999999997333 0  -8.269550274764534 48.90616630191017 0  -8.025754098371973 49.18230554988754 0  -8.390981692709985 49.72922177425203 0  -8.634777491115743 49.45308283970361 0  -9 49.99999999997949 0  -5.732528578177964 43.09416337369257 0  -5.976334629764555 42.81802092197955 0  -5.611061350311998 42.27109010768885 0  -5.367254619378728 42.54724371745427 0  -5.001975208609856 42.00020307882196 0  -5.727048467820536 23.91658600077217 0  -5.975751394961183 24.18429879055465 0  -5.612812974646475 24.72616250123453 0  -6.224452668522403 24.45201224869465 0  -5.364110800181503 24.4584599329971 0  -5.001178307223373 25.00021120704417 0  -8.274317939134086 52.08373596639299 0  -8.025704032511985 51.81602196904337 0  -8.388542317672826 51.27415487287288 0  -7.777088567545347 51.54830857726999 0  -8.637156667958653 51.54186885670283 0  -9 50.99999999998153 0  -5.72759437454465 38.08393580919213 0  -5.976236629187792 37.81617564746956 0  -5.613312770112897 37.27435941565972 0  -6.224880542471478 37.54841635028614 0  -5.364669739769478 37.54213163691192 0  -5.001739457792068 37.00019352737571 0  -5.727472451152209 34.91658384656292 0  -5.976143196441283 35.18429512178619 0  -5.613251889997649 35.7261562455737 0  -6.224812288999147 35.45200705031132 0  -5.364581776055858 35.45845665710588 0  -5.001696675284982 36.0002019541827 0  -7.884445791652659 50.50027424814909 0  -7.830766854669501 51.02429168212465 0  -8.442224528591538 50.75013655723843 0  -6.117602743531369 36.50021000142966 0  -6.171241914001196 37.02431182570857 0  -5.559670584756843 36.75023971546685 0  -6.171207251261998 35.97610723854089 0  -5.559650682458233 36.2502377134004 0  -5.977596956301555 25.26019147473134 0  -6.10102427517476 24.85610237153187 0  -5.489387668806907 25.13024035600252 0  -8.027793107019319 25.74589159171367 0  -7.904711285412225 26.14382741784866 0  -8.513897281353231 25.87294583029108 0  -6.943161010473622 34.37605797895826 0  -6.583984334179753 34.91403365764139 0  -6.840847728079503 35.23856125180872 0  -7.200024659945201 34.70058730055842 0  -7.456886332846245 35.02511624580552 0  -7.058874234420564 52.62425163707017 0  -7.417979137120562 52.08628123762009 0  -7.161168972153353 51.7617570179567 0  -6.80206431809224 52.29972804511687 0  -6.545252442582713 51.97520509349011 0  -6.943263985638747 38.62425048414874 0  -6.584074566131681 38.0863346359006 0  -6.840911825208394 37.76176558549326 0  -7.200100974493665 38.29968325437339 0  -7.456939940307061 37.97511559300748 0  -6.942894540986952 23.37605918946791 0  -6.583671299213059 23.91403641035268 0  -6.84056795532679 24.23856495446008 0  -7.19979145408119 23.70058920175734 0  -7.456686395156796 24.02511861288869 0  -7.884158402771666 17.50009990525091 0  -7.832836847815888 18.02093565957675 0  -8.442080843945186 17.75004935888811 0  -7.832822531034998 16.97927298129746 0  -8.442077558582556 17.25005027807813 0  -7.884040174039977 8.500102310393371 0  -7.832713159250177 9.02094051701528 0  -8.442021725820016 8.750051180316591 0  -7.931275775921692 2.415684458815853 0  -7.856288522403928 2.978727201444933 0  -8.465639453204796 2.707842539614884 0  -7.832698890034736 7.979273444473134 0  -8.442018452258827 8.250051082841109 0  -7.833202970572203 49.97935953235801 0  -8.442221254152885 50.25013744918446 0  -6.028050455958786 41.5933053181969 0  -6.124096904967908 42.067592910934
[...]
<PointData  Scalars="f_29"> 
<DataArray  type="Float64"  Name="f_29"  format="ascii">9.2812139856701791e+01  8.9673205526165702e+01  9.0680767499428512e+01  8.8551499060301126e+01  9.1791975169540152e+01  9.0786522318724991e+01  9.2816705149787524e+01  8.9675874446866402e+01  9.0684916671965254e+01  8.8555868492266683e+01  9.1794340461625822e+01  9.0788138464347639e+01  1.3925387250463788e+02  1.3611229615275320e+02  1.3712087909619649e+02  1.3499094877780763e+02  1.3823144926082625e+02  1.3722536561454561e+02  1.3924188758509376e+02  1.3625763202495645e+02  1.3712035379524971e+02  1.3500077845625350e+02  1.3837186258660097e+02  1.3751127153192795e+02  2.2789169269646729e+02  2.3103703155393589e+02  2.2891576763605974e+02  2.2992377773739739e+02  2.3002193618787572e+02  2.3215955135260319e+02  2.3215308747758047e+02  2.2916888873989470e+02  2.3003274048695334e+02  2.2791156335415741e+02  2.3128592693492786e+02  2.3042353579240046e+02  1.6876579771264267e+02  1.7190870008463415e+02  1.6978872260200856e+02  1.7079530854035107e+02  1.7089965355645845e+02  1.7303038011776599e+02  1.7302456149149396e+02  1.6991649578274067e+02  1.7089958888582777e+02  1.6877053448022315e+02  1.7203624564146975e+02  1.7105379078351072e+02  2.3637011956214550e+02  2.3953071543278236e+02  2.3741142640352990e+02  2.3844083613193854e+02  2.3849263034979396e+02  2.4062694565726287e+02  2.3637218822376676e+02  2.3953137702976514e+02  2.3741233811888318e+02  2.3844143879371981e+02  2.3849384933082376e+02  2.4062776457061099e+02  1.8146900090140855e+02  1.8192619424020967e+02  1.8289315497683572e+02  1.8431751537283606e+02  1.8050172667720659e+02  1.7953531393116086e+02  2.0679688937258453e+02  2.0634022134391552e+02  2.0537306730021345e+02  2.0394929186718392e+02  2.0776406725196605e+02  2.0873041622021560e+02  1.9413583343411528e+02  1.9367737189401822e+02  1.9271146289310431e+02  1.9128694207003474e+02  1.9510156484303130e+02  1.9606716437411797e+02  2.9515468185479310e+01  2.9057971929657725e+01  2.8092973789443434e+01  2.6670537550512648e+01  3.0480550975810857e+01  3.1444995419315426e+01  1.2655587033201653e+02  1.2701330695142988e+02  1.2797988942566525e+02  1.2940439201964529e+02  1.2558960590033384e+02  1.2462326387531544e+02  1.6867914032112321e+01  1.7323639128747679e+01  1.8289884970217802e+01  1.9711878687047903e+01  1.5901398088607140e+01  1.4935561840147484e+01  4.2164879035120130e+01  4.2622019846925618e+01  4.3587352397469409e+01  4.5009734072990682e+01  4.1199486827120190e+01  4.0234952211354923e+01  5.4813658606074561e+01  5.4356660790038624e+01  5.3391222595765356e+01  5.1968852789989384e+01  5.5779086702962339e+01  5.6744000881132571e+01  6.7463614101118566e+01  6.7007367309694246e+01  6.6041046967760394e+01  6.4618539200483013e+01  6.8429937381153721e+01  6.9395392255099438e+01  8.0118483205231200e+01  8.0576552947323535e+01  8.1542399856937891e+01  8.2966724477179199e+01  7.9152979467399575e+01  7.8187973127656960e+01  1.1389704883139380e+02  1.1435413128149787e+02  1.1532032218954295e+02  1.1674388568973738e+02  1.1293068568662611e+02  1.1196443533460943e+02  8.0516913684026818e+01  7.9352877107331153e+01  7.7050780923274232e+01  7.8212745817128038e+01  7.5920801114913118e+01  1.1429469956660422e+02  1.1312969218894013e+02  1.1082453254420263e+02  1.1198752102114223e+02  1.0968943107271905e+02  6.7066904534841214e+01  6.8230920991938817e+01  7.0534001913596001e+01  6.9369456145517006e+01  7.1660560731831325e+01  1.2695284600796639e+02  1.2578831463882362e+02  1.2348357187540172e+02  1.2464607721178668e+02  1.2234898343102665e+02  5.4415973079409973e+01  5.5579762564514354e+01  5.7882062147925303e+01  5.6720266099883709e+01  5.9014696745218686e+01  4.2563111782814282e+01  4.1399360845507736e+01  3.9098179142412619e+01  4.0259827754420606e+01  3.7968524538236267e+01  1.7264079667482836e+01  1.6099939877143267e+01  1.3796173835541433e+01  1.4960761475868159e+01  1.2667579829930169e+01  2.9116260283785820e+01  3.0280457995413013e+01  3.2582999273639508e+01  3.1418453580897797e+01  3.3709223284709303e+01  1.9373666562458590e+02  1.9490165711286554e+02  1.9720629023152372e+02  1.9604333670478155e+02  1.9834002468753036e+02  2.0639978664527200e+02  2.0756487527993679e+02  2.0987010715401578e+02  2.0870447880166452e+02  2.1099776229764524e+02  1.8186669649146859e+02  1.8070136740144426e+02  1.7839668196582971e+02  1.7955978787398746e+02  1.7726443927604203e+02  1.0088378177602732e+02  1.0201332826336380e+02  1.0429664554274905e+02  1.0314302573885649e+02  1.0316906300081388e+02  1.0544516054835654e+02  2.1981951073728598e+02  2.1868939009942625e+02  2.1640677779837958e+02  2.1755866758625211e+02  2.1753464529610702e+02  2.1526218074523305e+02  1.6069642472127512e+02  1.5956646040735424e+02  1.5728447021119123e+02  1.5843603969540118e+02  1.5841205030148157e+02  1.5614020098215033e+02  1.4732051630681713e+02  1.4845095880365429e+02  1.5073457568067337e+02  1.4958151892058430e+02  1.4960379708844474e+02  1.5187582067192085e+02  2.1313095830801186e+02  2.1534586401327331e+02  2.1418816436337985e+02  1.5400860841299976e+02  1.5622343528815881e+02  1.5506589503362287e+02  1.5179384222319374e+02  1.5294894008518912e+02  1.0655393141648291e+02  1.0484793976014323e+02  1.0600574709098328e+02  1.0860529546357064e+02  1.1028538033197275e+02  1.0914128642737582e+02  1.4504246544682326e+02  1.4731241594868357e+02  1.4868256987357745e+02  1.4641268602633198e+02  1.4778288392000562e+02  2.2210033353764470e+02  2.1982865043149710e+02  2.1845790341882605e+02  2.2072919237773712e+02  2.1935808882355957e+02  1.6297540382917728e+02  1.6070510744619935e+02  1.5933493419284417e+02  1.6160508993778026e+02  1.6023477514402038e+02  9.8604001856879563e+01  1.0087381442864739e+02  1.0224298020360152e+02  9.9973374576813129e+01  1.0134245102951733e+02  7.3791112331492357e+01  7.5990558175702589e+01  7.4847577131014447e+01  7.1592012750367445e+01  7.2732550589420853e+01  3.5839650825044615e+01  3.8038396788699863e+01  3.6895621344324780e+01  1.0183487430815097e+01  1.2560867062978076e+01  1.1419249480311931e+01  3.3641130629709558e+01  3.4781107361591523e+01  2.1092943706648546e+02  2.1207109627528169e+02  1.7552831434203313e+02  1.7753255757639914e+02  1.7639001530239892e+02  1.0415217703793589e+02  1.0364775246506369e+02  1.0274712096957933e+02  2.1598392547674126e+02  2.1677115434460225e+02  2.1767095522645042e+02  1.5687023514652773e+02  1.5765293176018164e+02  1.5855251574870761e+02  1.5115712763895868e+02  1.5036949612206254e+02  1.4946995829719984e+02  1.2123371695613947e+02  1.2292899760115110e+02  1.2178522716739413e+02  1.8446735738129604e+02  1.8200142046419012e+02  1.8439258193546445e+02  2.0380045395623614e+02  2.0626528733767589e+02  2.0387460997613445e+02  1.9113674263791586e+02  1.9360202829930265e+02  1.9121161870204929e+02  2.6520421282381527e+01  2.8982490898984892e+01  2.6595417864328969e+01  1.9860747953813931e+01  1.7398458448851454e+01  1.9786332328911595e+01  1.2958797336456351e+02  1.2710539650152165e+02  1.2949667406380763e+02  4.5159372504705672e+01  4.2697331741291016e+01  4.5084622973214664e+01  5.1819337225179645e+01  5.4281538644077941e+01  5.1894019792479526e+01  6.4469933894296275e+01  6.6932518341284222e+01  6.4543981079921423e+01  8.3150376228321036e+01  8.0668989011179676e+01  8.3059099949730296e+01  1.1689391207040677e+02  1.1442927869888426e+02  1.1681899277128485e+02  1.1058695685592139e+02  1.1127554109712146e+02  1.1224230504055124e+02  7.6640485731876481e+01  7.7414092393833627e+01  7.8379548227733679e+01  7.0910810292148923e+01  7.0153264195635614e+01  6.9187142613159125e+01  1.2320393356489336e+02  1.2391349794412707e+02  1.2487998656099904e+02  5.8212605441572201e+01  5.7478390669474614e+01  5.6513092945609884e+01  3.8719063568611489e+01  3.9476785380160280e+01  4.0442070185742331e+01  1.3974197869957358e+01  1.4454672477162879e+01  1.5421238041698013e+01  3.2960904238655004e+01  3.2203124190770907e+01  3.1238070835648429e+01  1.7810832630710556e+02  1.7882162851163071e+02  1.7978905051139216e+02  2.1024726456357263e+02  2.0948901241350393e+02  2.0852198291982387e+02  1.9753758244173062e+02  1.9680244391120993e+02  1.9583667656438197e+02  1.7329081596267150e+02  1.7427604144009061e+02  2.3426461433549181e+02  2.3209452883421412e+02  2.3320492576921598e+02  2.3426347781357589e+02  2.3234352993753970e+02  2.3320711058654459e+02  2.3635224924120030e+02  2.3531604682100701e+02  2.3635304668711657e+02  2.3531681110473082e+02  5.9651513983357392e+00  8.7071449842360842e+00  6.5983322327646574e+00  7.2312321009198186e+00  8.0733272983693105e+00  2.5005847630736241e+02  2.5006972470981108e+02  2.5168485568954588e+02  2.5008070701554306e+02  2.5167394684990242e+02  2.5328940906178553e+02  2.5005838835344866e+02  2.5006977005508290e+02  2.5168501178378006e+02  2.5167396145109359e+02  2.5328940906178553e+02  2.4349938880939766e+02  2.4097022536016294e+02  2.4205887249740414e+02  2.4349969715429495e+02  2.4097076600836178e+02  2.4205944066872831e+02  3.2659818504894291e+00  3.2762068718290931e+00  1.6437143641130785e+00  3.2870805006191648e+00  1.6330196829809271e+00  0.0000000000000000e+00  9.4235665219255068e+01  9.2667623540127821e+01  9.4546731263768891e+01  9.2357324662582116e+01  9.3927028051182546e+01  1.4067146761509750e+02  1.3910319317856911e+02  1.4098029909181022e+02  1.3879478743981730e+02  1.4036476502535325e+02  1.6734576203328527e+02  1.6891464083376343e+02  1.6703457093102071e+02  1.6922521953792818e+02  1.6765464867418416e+02  2.2678143801020965e+02  2.2835268224485714e+02  2.2775684804328063e+02  2.2618753932226906e+02  2.2559065760084653e+02  3.2259166608701677e+00  3.2561871532956022e+00  1.6439091326228470e+00  1.6129255328196113e+00  0.0000000000000000e+00  8.7388026606404452e+01  8.9087437372738663e+01  8.7973143205856744e+01  1.3382671232566062e+02  1.3552620035311227e+02  1.3441219360469205e+02  1.7414605190112511e+02  1.7247056351822087e+02  1.7358479040663167e+02  2.3209517536698857e+02  2.3426463026172465e+02  2.3426466558686190e+02  2.3635269632648996e+02  2.3426441594530385e+02  2.3635302082513289e+02  2.3234369925482420e+02  1.7309330352991276e+02  1.7532971760565445e+02  1.7513232430570480e+02  8.9918647824012382e+01  9.0352905740456620e+01  9.2233378502103321e+01  9.0352120763541933e+01  9.2667024147265707e+01  1.3606876155056779e+02  1.3664647457513547e+02  1.3852510106688644e+02  1.3678965620178096e+02  1.3924564432536988e+02  2.2922951260486084e+02  2.2957715220020776e+02  2.2740970782965928e+02  1.7166480062716249e+02  1.7135921698532343e+02  1.7339878410001580e+02  1.6904323741803429e+02  1.6934900031099943e+02  1.7123058842774159e+02  2.3806347355710903e+02  2.3825264133822685e+02  2.3616402224175613e+02  2.3825231290098836e+02  2.4010251293304128e+02  2.3991334954002568e+02  2.4176266774705732e+02  2.2982648620984446e+02  2.3174691905794847e+02  2.4010279880979260e+02  9.4474193378919409e+01  9.2630558661831969e+01  9.4509334515637008e+01  1.4090966310636094e+02  1.3921058073422205e+02  1.4094421830318663e+02  1.6710758077251316e+02  1.6907990062108931e+02  1.6707221078099016e+02  7.5216493708457349e+01  7.2350335142132337e+01  3.7280103862282928e+01  1.2079775687900568e+01  3.4399580337597293e+01  2.1168847098079954e+02  2.2780166100294392e+02  2.2598242563216925e+02  2.2637312522106453e+02  2.2839792853786210e+02  7.3790761099977203e+01  7.2350662731299352e+01  7.3791040239332148e+01  7.5215667378416953e+01  3.5839950534259764e+01  3.4400327354474527e+01  3.5839845584445577e+01  1.0541194957395160e+01  1.2257848225108084e+01  1.0362630932971337e+01  3.7279592869030701e+01  2.1312973965891140e+02  2.1168837036725333e+02  2.1313044981439671e+02  8.6010374761215743e+01  8.8654121201024495e+01  8.7964124003977091e+01  8.6699980261847344e+01  1.3244853218153881e+02  1.3494857375714182e+02  1.3425840388909805e+02  1.3313828708446508e+02  1.7290455525480644e+02  1.7463836640515197e+02  1.7681818132673524e+02  1.7662063465886789e+02  2.4744080722302891e+02  2.4466451744051912e+02  2.4663592693577499e+02  2.4583126073678065e+02  2.4547061340995447e+02  2.4744087708812017e+02  2.4466464500827928e+02  2.4663597915883091e+02  2.4547072503673897e+02  2.4263004935052061e+02  2.4262981494415905e+02  6.0476421529996912e+01  5.8609656462982123e+01  5.9751982412828632e+01  1.9980321068024600e+02  1.9793466017056136e+02  1.9907801679943088e+02  2.1455813646072775e+02  1.5258213276894153e+02  1.5544016851789794e+02  2.1455686665707114e+02  1.5400869049950074e+02  1.5258283085225241e+02  1.5400867602279038e+02  1.5543952441558429e+02  1.0756732865134855e+02  1.0959618834093160e+02  1.0907726249999332e+02  1.0808616299449419e+02  1.2655640516599686e+02  1.2445128209743908e+02  1.2675452537155670e+02  6.7461874988483842e+01  6.7264357329276095e+01  6.9564043944699662e+01  8.0121192112898015e+01  7.8018630990273309e+01  8.0319023587398277e+01  1.1389863973204311e+02  1.1179263941599910e+02  1.1409669266434349e+02  1.6868864826697475e+01  1.4765794199204125e+01  1.7066545314466492e+01  2.9510768740029672e+01  2.9313362027944418e+01  3.1612974414589463e+01  4.2167932039325215e+01  4.0065780677163126e+01  4.2365595814699631e+01  5.4811449425634585e+01  5.4613720179676207e+01  5.6914693900540797e+01  1.9413271473536068e+02  1.9393470344251921e+02  1.9623797029509865e+02  2.0679512189658851e+02  2.0659741836802277e+02  2.0889925679940950e+02  1.8147066007551504e+02  1.7936534364177066e+02  1.8166872461349109e+02  8.8501437185598846e+01  8.6547360593759777e+01  8.7082851513420394e+01  1.3481165631106805e+02  1.3300163724913784e+02  1.3355385066123586e+02  1.1978575095532034e+02  1.1841865420274742e+02  1.1994342649687448e+02  1.1826086470656092e+02  1.1962827770136867e+02  1.8764704376751808e+02  1.8613506368359484e+02  1.8780231853086630e+02  1.8597907623392888e+02  1.8749149454530195e+02  1.8795768187095851e+02  1.8946942158258514e+02  1.8962537816946426e+02  1.8811342886083006e+02  1.2221887062149172e+02  1.2058830195700362e+02  1.2157369784035045e+02  8.8935369394043917e+01  1.3553245742303380e+02  8.8859865202989798e+00  9.3373366441542274e+01  1.3981088437030783e+02  2.2733543678087685e+02  1.6820867673525737e+02  8.7822320202836821e+01  1.3427785472906501e+02  1.0535300503159836e+02  1.0585962193175146e+02  1.0706086864333659e+02  1.4466981144179613e+02  1.4712561378144633e+02  1.4485586150545984e+02  2.2247223238706917e+02  2.2001518300038737e+02  2.2228681991288434e+02  1.6329831142969712e+02  1.6086715190526408e+02  1.6313719367669083e+02  9.8282010796449555e+01  1.0071246729142416e+02  9.8442680560037417e+01  4.8489294717975582e+01  5.0154341223180275e+01  4.8489279378276876e+01  5.0154420306342786e+01  4.8489302329596448e+01  4.6824262153268151e+01  4.6824228341507578e+01  2.3190760416618577e+01  2.4855829319770514e+01  2.3191149212767332e+01  2.4855527963646718e+01  2.3190446695563903e+01  2.1525913582281351e+01  2.1525513876642762e+01  2.4379768088327785e+02  1.0123744542444612e+02  1.0106118521776895e+02  1.0334239267861869e+02  2.1946610386703449e+02  2.1736182105165111e+02  2.1964236558732856e+02  1.6034344229712386e+02  1.5823931518704345e+02  1.6051953995527955e+02  1.4767295968462838e+02  1.4749706721529705e+02  1.4977713898053753e+02  1.2252079984009103e+02  1.2123210251017535e+02  1.2107461621620992e+02  1.9029771643240659e+02  1.8904971665175867e+02  1.8889495470509320e+02  1.8530750597594133e+02  1.8655510397646879e+02  1.8671017834869491e+02  6.1448314344581718e+01  5.9344323639183862e+01  5.9830380890127373e+01  6.0962571101599188e+01  2.0077627143675898e+02  1.9867015479536133e+02  1.9915686662533557e+02  2.0028991964585634e+02  0.0000000000000000e+00  0.0000000000000000e+00  1.6436291289424751e+00  2.5328940906178553e+02  2.5328940906178553e+02  2.5168501455796525e+02  2.5328940906178553e+02  0.0000000000000000e+00  9.3644493620212302e+01  1.4007770826428936e+02  2.2714313079226082e+02  1.6794304455538213e+02  2.4874998562168389e+02  2.4876042735650904e+02  2.4874987102301611e+02  2.4876048651699358e+02  1.2836289248841341e+01  1.0864408345834875e+01  1.2747321475603570e+01  1.2665911854484149e+01  1.0955493951713468e+01  9.0736595714079602e+00  9.6378082932109450e+01  9.6414353922021775e+01  1.4278977615417602e+02  1.4282507408242722e+02  1.6520296963793717e+02  1.6516629154511384e+02  2.2442198160694477e+02  2.2403181853844700e+02  8.5115729080832168e+01  8.4580526810116979e+01  1.3157006305689876e+02  1.3101850140396428e+02  8.4208937713566812e+00  8.7508856558638843e+00  1.0541856143292346e+01  4.6152090687856751e+00  4.6263600384083601e+00  6.2473848782330606e+01  6.2958779627717441e+01  2.0180251633966398e+02  2.0228798294685666e+02  5.7555277545698234e+00  4.4905012541163725e+00  4.5213891430724269e+00  6.1863246439537022e+01  6.3860646213360376e+01  6.3259902257683244e+01  2.0119129073343322e+02  2.0319055787836049e+02  2.0258922787878257e+02  9.7389855040414602e+01  9.5968289862465809e+01  9.5658329236421011e+01  1.4388004653322145e+02  1.4243013702852363e+02  1.4212224803908811e+02  1.6413894092192299e+02  1.6558679773269273e+02  1.6589693489619776e+02  2.2339354094056409e+02  2.2449225093851862e+02  2.2508724005713236e+02  8.5707771359405285e+01  8.3741682323394400e+01  8.4323977362401720e+01  1.3216285281211637e+02  1.3017980735493654e+02  1.3076377823142880e+02  8.2526191244950091e+00  6.1448359505574661e+00  6.3237994491889715e+00  2.0256995225008504e+02  2.0037137843186269e+02  1.9947449775754123e+02  1.9817301964018790e+02  2.0167319085133542e+02  3.5840119454496815e+01  3.6986074343383585e+01  3.8131949781439374e+01  3.4694013051184726e+01  3.3548336655565883e+01  7.5852774634464069e+01  7.3674751066174011e+01  7.2643872683974678e+01  7.1497208601561411e+01  7.4821888381824763e+01  4.6397101094465803e+01  4.8476804041883582e+01  4.9522847787871925e+01  5.0556535140491626e+01  4.7443225468190526e+01  2.1099864855001318e+01  2.3179341092111390e+01  2.4224966725983641e+01  2.5258883649153571e+01  2.2145534662857546e+01  6.3240204814324230e+01  6.0147441026895159e+01  6.2344320680157587e+01  6.1043395889542481e+01  5.8846689310162432e+01  8.3804753139273942e+01  8.4908044015415200e+01  8.5595726983903049e+01  1.3038173758842959e+02  1.3141562222401492e+02  1.3210364722594733e+02  1.7772027098500809e+02  1.7642589907744386e+02  1.7593380902579190e+02  1.0505077617106757e+02  1.0630946175155850e+02  1.0682729738452448e+02  1.1793068791932303e+02  1.1893766577134802e+02  1.1958171098049102e+02  1.0820911637969488e+02  1.0871490287071067e+02  1.0986346918488670e+02  1.5181602436699885e+02  1.5514248975521966e+02  1.5291215957040365e+02  1.5404600218707708e+02  1.5627585485119371e+02  2.1533389400677913e+02  2.1308369251845971e+02  2.1198173130789854e+02  2.1083391491329155e+02  2.1423199785807719e+02  8.1528040965047825e+00  9.8079499979258422e+00  8.1833275021852728e+01  8.2424798959707772e+01  1.1559430163688272e+02  1.1750492419594529e+02  1.1620555809008523e+02  1.1811139622134648e+02  4.3861156348882552e+01  4.5769541291169325e+01  4.4471220928808421e+01  4.6372851320793934e+01  1.8316690045972013e+02  1.8507788520202803e+02  1.8377722085912112e+02  1.8567907233464013e+02  5.3117698773171533e+01  5.1209158627822774e+01  5.2507626975998654e+01  5.0605710961594411e+01  2.0510035833852470e+02  2.0449053841500071e+02  1.9243682146971710e+02  1.9052633280736487e+02  1.9182655536477944e+02  1.8992525546551929e+02  2.7818462264624717e+01  2.5909945679232305e+01  2.7208031941549976e+01  2.5306447210987514e+01  1.8562313497878165e+01  2.0470700668599154e+01  1.9172296325916999e+01  2.1073933810202007e+01  6.5768667919669511e+01  6.5159430711169591e+01  1.2827015835019785e+02  1.2886203222104419e+02  1.4539090837536446e+02  1.4406294962617685e+02  1.4346392846360857e+02  1.4599535455734119e+02  1.6262580044791989e+02  1.6392953116928607e+02  1.6455289034359262e+02  1.6199719938057444e+02  2.2174878800104446e+02  2.2307828763662872e+02  2.2367268431966411e+02  2.2114546772624985e