<?xml version="1.0"?>
<VTKFile type="UnstructuredGrid"  version="0.1"  >
<UnstructuredGrid>
<Piece  NumberOfPoints="2690" NumberOfCells="4864">
<Points>
<DataArray  type="Float64"  NumberOfComponents="3"  format="ascii">-5.070500712759229 22.0154239448122 0  -5.661139764935624 21.27806575935586 0  -5.069111765437982 21.51668578698028 0  -5.067465401740225 21.015497832999 0  -5.662535304204295 21.77834962562169 0  -6.254562404089969 21.53878785430338 0  -9 21.99999999996945 0  -8.407169179073113 21.26572313119616 0  -9 21.49999999997139 0  -9 20.99999999997333 0  -8.40741685005289 21.76570518436984 0  -7.814601115792173 21.53136976612589 0  -9 32.9999999999446 0  -8.41258706585767 32.26567272327046 0  -9 32.49999999994358 0  -9 31.99999999994255 0  -8.412834458264745 32.76567750839115 0  -7.82543484478109 32.53131812169035 0  -5.106443585353989 33.01666899596358 0  -5.610446599097551 32.31285272621152 0  -5.104995258846222 32.51888539919484 0  -5.103238952138264 32.01612889193679 0  -5.611891307481052 32.81328080437594 0  -6.117329981780034 32.60750030476508 0  -5.17616053278616 54.01588151231883 0  -5.754718080930193 54.75264284324118 0  -5.753340118960033 54.25330736066378 0  -6.330304016739571 54.48840100876831 0  -5.177783159340354 54.51706582496305 0  -5.179209675850494 55.01604404053064 0  -9 54.99999999998974 0  -8.4933777298456 54.29883367028522 0  -9 54.49999999998872 0  -9 53.99999999998769 0  -8.493596400813054 54.79876700215252 0  -7.987019582507143 54.59755561441692 0  -9 39.99999999995897 0  -8.416789337210288 40.74062151205412 0  -8.416541857700468 40.24062506216446 0  -7.833320224105957 40.48120364632491 0  -9 40.49999999996 0  -9 40.99999999996102 0  -5.132748592595279 41.01473797525777 0  -5.688164323816628 40.28368900110608 0  -5.131312108162445 40.51713508292826 0  -5.129693543922977 40.01659824338452 0  -5.689561736335994 40.7834392355816 0  -6.246413233531004 40.54944006132066 0  -9 55.99999999999179 0  -8.448404050820958 56.74621569631059 0  -8.448188039550729 56.24617351010464 0  -7.896602194896489 56.49234642149011 0  -9 56.49999999999282 0  -9 56.99999999999384 0  -5.182822727604118 56.0151619652132 0  -5.736666286918126 56.75854582658603 0  -5.735309383362734 56.25848064806671 0  -6.287531502407266 56.49988166998833 0  -5.184545978441972 56.51757669837599 0  -5.185968253694828 57.01609387018095 0  -7.491990628391817 43.00873582608892 0  -6.67391138744184 43.12181809002465 0  -7.26229816114462 43.34755569949591 0  -7.03273330311174 43.68638738432703 0  -6.903473342296112 42.78290234872974 0  -6.314735207765057 42.55707428850462 0  -6.659414186113931 49.01650239380503 0  -7.473436919612617 48.90249291895439 0  -6.88780460817689 48.67756642819928 0  -7.116341757582512 48.33858029421569 0  -7.244913196682099 49.24139644868107 0  -7.830175661252576 49.4664085485237 0  -6.653409125686255 46.01549823346059 0  -7.469522571292496 45.90184291404191 0  -6.882409880176289 45.67637949954513 0  -7.111548246262979 45.33734075918558 0  -7.240393149554432 46.24086971285799 0  -7.827153924911544 46.46618324498941 0  -6.575929810413786 7.016038145518448 0  -7.418996443890318 6.90227018601624 0  -6.812517385038507 6.677093551173573 0  -7.04924327631351 6.338152578824412 0  -7.182279623221049 7.241208453360538 0  -7.788407762055667 7.466367434576103 0  -7.475308805863294 30.00863730181183 0  -6.648172170109771 30.12159805881739 0  -7.243077166604563 30.34721969668583 0  -7.01097704822366 30.68574812041108 0  -6.880274858032661 29.78296397156818 0  -6.285013748362409 29.55737718238902 0  -6.570241530633187 4.015267453268546 0  -7.415582098401207 4.118132419238442 0  -6.808543327827779 4.351245501607785 0  -7.046730695266445 4.687173452190803 0  -7.177402468365221 3.782173586482205 0  -7.784754384080608 3.549179574475108 0  -6.581761469931598 10.01617451766134 0  -7.423067514687092 10.11873895630548 0  -6.818956577802289 10.35195049305384 0  -7.056031600696797 10.68772728293295 0  -7.185981664353765 9.782978236093298 0  -7.790429615557177 9.549762574776015 0  -6.587608846968081 13.01631938685945 0  -7.426603943578201 12.90249660846375 0  -6.823045277385924 12.67738010175005 0  -7.058619144930786 12.33844578365825 0  -7.191033922053752 13.24145428954661 0  -7.794243060701925 13.46654396750777 0  -6.593491976122929 16.01656904989688 0  -7.430449004217365 15.9025702197083 0  -6.828350574884625 15.67764825573032 0  -7.063350327658562 15.33868708028924 0  -7.195461175825143 16.24147173182 0  -7.797201787874157 16.46646775872626 0  -6.599534385585556 19.0148400485879 0  -7.434673633025441 19.11769504214782 0  -6.835041937969935 19.35034843052619 0  -7.070407575446856 19.68595065967379 0  -7.199295674221705 18.78204441673248 0  -7.799296973749534 18.54920605702317 0  -6.615463902387741 27.01428589740309 0  -7.445063850258929 27.11734828420165 0  -6.84938862817055 27.35010793496943 0  -7.083186962699606 27.68595249765623 0  -7.211262689541352 26.78141548290725 0  -7.807283256635981 26.54867512978578 0  -8.280288957746611 19.09827270994589 0  -8.039849310852219 18.8237149186779 0  -8.399510874376656 18.27464627543925 0  -8.639977395609849 18.54920423204687 0  -9 17.99999999998495 0  -8.28506834290827 27.09809816684166 0  -8.046230114284867 26.82338862386654 0  -8.40350792873762 26.27432323521113 0  -8.64237196108852 26.54904613692431 0  -9 25.99999999995395 0  -8.278365087579024 15.91101494652179 0  -8.037728091817078 16.18875014489776 0  -8.398735619691372 16.73319902913128 0  -8.639345749152525 16.4554821417309 0  -9 16.99999999998883 0  -5.810280161479774 30.11277591279303 0  -6.047588289986062 29.83505894537696 0  -5.689401910612873 29.29004500460531 0  -5.45207876999837 29.56848982959322 0  -5.093172584105864 29.01541252397583 0  -8.276595091646984 12.91100826239842 0  -8.035364698468872 13.18877287941825 0  -8.397252894939124 13.73327872493506 0  -8.638458068584463 13.45551162349472 0  -9 13.99999999999401 0  -8.274952839941774 10.09876192941864 0  -8.032744354046939 9.82426287608474 0  -8.395082541298077 9.274878779907553 0  -8.637317703194801 9.549377902648622 0  -9 8.99999999999857 0  -8.271522771816851 4.098474805169485 0  -8.028186538342084 3.823840023182981 0  -8.392270925114749 3.274567412027367 0  -8.635621261398525 3.549205412385671 0  -9 2.999999999998668 0  -8.273099304447038 6.910894967997712 0  -8.030699414501244 7.188628143207497 0  -8.394334653607414 7.733188279050719 0  -8.636708706057735 7.455456889333167 0  -9 7.999999999999485 0  -8.296329504867147 45.91069805710321 0  -8.061686908097871 46.18842254013607 0  -8.413710585478251 46.73312000778446 0  -8.648326722376554 46.45539713781731 0  -9 46.99999999997333 0  -8.298130357367334 48.91097061567778 0  -8.064096106741143 49.18869841745315 0  -8.415225774440085 49.7331679177224 0  -8.649232584340572 49.45546268275944 0  -9 49.99999999997949 0  -5.845216556402624 43.11296549177617 0  -6.079916005953837 42.83501568119318 0  -5.725646140632658 42.28952826747062 0  -5.490937766719563 42.56829187333221 0  -5.135913429748723 42.01478023174835 0  -5.789168615222667 23.93537744089171 0  -6.033797501037922 24.20144435779132 0  -5.679315914048291 24.74509716048192 0  -6.278309148414605 24.46756307858726 0  -5.434778010088136 24.47976130050547 0  -5.080397285637806 25.01531737374407 0  -8.304631322628367 52.08799631701597 0  -8.06618409933769 51.82183469515397 0  -8.413669539148016 51.2779015421854 0  -7.827623922640941 51.55571687824905 0  -8.652148410487692 51.54406225877706 0  -9 50.99999999998153 0  -5.827122465146349 38.10252445639844 0  -6.067534799682556 37.83301859588153 0  -5.714061141671388 37.29281271619927 0  -6.308061767880349 37.56356232521394 0  -5.47363123944142 37.56319993038579 0  -5.119385300968828 37.01409288981014 0  -5.818599624650403 34.93522944323829 0  -6.061003458355063 35.20118548651484 0  -5.709802639182628 35.74464452006067 0  -6.303290387064326 35.46719062688219 0  -5.467479578569529 35.47953003562201 0  -5.116404834105042 36.01460360329533 0  -7.929569499289562 50.50734724849579 0  -7.87857192420932 51.03155170159608 0  -8.464901853972778 50.7536328298661 0  -6.201545379333783 36.51522729957816 0  -6.254820730161424 37.03929912715667 0  -5.660541650277223 36.76738881435077 0  -6.252395896575631 35.99110646031562 0  -5.659129547035321 36.26721303117655 0  -6.038169834908686 25.27670985529736 0  -6.158206623013977 24.87216896061672 0  -5.559400028389354 25.14883277951719 0  -8.04764683162804 25.75135809287316 0  -7.927425328166176 26.15001606072743 0  -8.523872823657271 25.87568161794953 0  -6.999513200073417 34.38715360221058 0  -6.651240420141089 34.9272615920471 0  -6.901521797995452 35.25029153823434 0  -7.249814798286675 34.71031198817217 0  -7.499977822763647 35.03344281132062 0  -7.140846897040171 52.6353224021303 0  -7.484068782723689 52.09560272840731 0  -7.237485069210159 51.7728123146583 0  -6.894279600904464 52.31257992635527 0  -6.647568899336558 51.9898815872046 0  -7.006707596070666 38.63525093638549 0  -6.657546069611676 38.0994958492919 0  -6.906001159851674 37.77344845448285 0  -7.255146806980014 38.30934033190274 0  -7.50372343201992 37.98339587193925 0  -6.981017984459217 23.38723585625317 0  -6.629504679699197 23.92745476101311 0  -6.882086905072629 24.25055500953756 0  -7.233622428520908 23.71044464982308 0  -7.486089710972915 24.03361015124793 0  -7.899490560995206 17.5072294105197 0  -7.849369819249678 18.02824088299596 0  -8.449860451754056 17.75357275928967 0  -7.848367359617395 16.98685701683618 0  -8.449630277510179 17.25363797237205 0  -7.89141025392627 8.507395504384283 0  -7.840899237413434 9.028580519759258 0  -8.445815197566592 8.753699376875296 0  -7.933531563364913 2.422022707393752 0  -7.859098728845937 2.985581662068871 0  -8.466869510369257 2.711032960650376 0  -7.839930717283398 7.986885513363369 0  -8.445593037788388 8.25369255496512 0  -7.87989490997928 49.98688705588736 0  -8.464666734401026 50.25369787367031 0  -6.126874577349637 41.608051012205 0  -6.220843284614169 42.08263051128323
[...]
<PointData  Scalars="f_29"> 
<DataArray  type="Float64"  Name="f_29"  format="ascii">3.9975068178181562e+02  3.8597629590321066e+02  3.9038835480797258e+02  3.8104321772646438e+02  3.9528273952940509e+02  3.9084275782268350e+02  3.9962313152566452e+02  3.8585245000715298e+02  3.9025885104462611e+02  3.8090778395614882e+02  3.9516038256536677e+02  3.9076855468983786e+02  6.0584709358486930e+02  5.9179602984823043e+02  5.9629046708914780e+02  5.8674976207356349e+02  6.0129438795295948e+02  5.9681068979432337e+02  6.0592842355048913e+02  5.9256083213012039e+02  5.9641766783547848e+02  5.8693324725492596e+02  6.0203961109895613e+02  5.9816630062341312e+02  1.0112070193378653e+03  1.0258643529603614e+03  1.0159800264487782e+03  1.0206575085505374e+03  1.0211306184573875e+03  1.0310986549100294e+03  1.0309406372327835e+03  1.0170400372404258e+03  1.0210488582600672e+03  1.0111568289092270e+03  1.0269182474808674e+03  1.0229165451723479e+03  7.3909356316626327e+02  7.5340340241719730e+02  7.4376617617826321e+02  7.4836869062410801e+02  7.4879111137372445e+02  7.5847742868809200e+02  7.5859953487771145e+02  7.4446063313075490e+02  7.4892745400842171e+02  7.3924227819381508e+02  7.5410969049952098e+02  7.4961902697755647e+02  1.0506434840728866e+03  1.0654401054587452e+03  1.0555316637356900e+03  1.0603685391593392e+03  1.0605669330460410e+03  1.0705434123160721e+03  1.0507689245236018e+03  1.0655348638564838e+03  1.0556318710238113e+03  1.0604297437236623e+03  1.0606828466097609e+03  1.0706624720307616e+03  7.9699779033107882e+02  7.9910675800695890e+02  8.0350993558053210e+02  8.1002851406322384e+02  7.9260078083059250e+02  7.8820474103132142e+02  9.1327541024987374e+02  9.1113342330622675e+02  9.0669453682873063e+02  9.0011799238593971e+02  9.1771941399830428e+02  9.2215840228617287e+02  8.5500363445443622e+02  8.5286957775261237e+02  8.4846490271447453e+02  8.4192731765386850e+02  8.5941441968840616e+02  8.6382226253134502e+02  1.2528566150099388e+02  1.2329654574477949e+02  1.1920120920350244e+02  1.1311964692388284e+02  1.2938617658806604e+02  1.3348220876914434e+02  5.4909541170550517e+02  5.5115733082263148e+02  5.5546042407190976e+02  5.6183296020527587e+02  5.4480163647063466e+02  5.4050861243168947e+02  7.1404669802482346e+01  7.3313663274501053e+01  7.7439869837373678e+01  8.3477010448022497e+01  6.7283558629013697e+01  6.3163316753783526e+01  1.7949739174713014e+02  1.8142403230643771e+02  1.8560355216165863e+02  1.9171092993605043e+02  1.7532207977152368e+02  1.7115050894796425e+02  2.3400700985304400e+02  2.3199380968083892e+02  2.2785192307347918e+02  2.2169969042435119e+02  2.3815317132457253e+02  2.4229581004420362e+02  2.8882497561049394e+02  2.8680695494827182e+02  2.8263328421011732e+02  2.7644582412339497e+02  2.9300357050367364e+02  2.9717706288690459e+02  3.4401065408885540e+02  3.4598957972227799e+02  3.5023945500640946e+02  3.5647348648306519e+02  3.3976990444631718e+02  3.3552744257878851e+02  4.9278573115445988e+02  4.9479187232253855e+02  4.9910029194717680e+02  5.0541847599075578e+02  4.8848511921595508e+02  4.8418108576996775e+02  3.4569324626683164e+02  3.4061185487319926e+02  3.3052994512487732e+02  3.3559710423561881e+02  3.2556354034616919e+02  4.9449533712132171e+02  4.8933842557736324e+02  4.7910439884216305e+02  4.8424750240546808e+02  4.7404850766992632e+02  2.8702550288296118e+02  2.9210002253578432e+02  3.0210353648719729e+02  2.9702212061641444e+02  3.0698143475583180e+02  5.5088938176136378e+02  5.4570189038883700e+02  5.3545513656189030e+02  5.4059659614337681e+02  5.3043054856185461e+02  2.3220596378280683e+02  2.3724959378737802e+02  2.4718677842341882e+02  2.4214766023477850e+02  2.5205579473773741e+02  1.8112706533054217e+02  1.7614001278055858e+02  1.6623950789212734e+02  1.7121317457898692e+02  1.6136117868227515e+02  7.3025026647498123e+01  6.8094556783035259e+01  5.8304909865929289e+01  6.3232991415810126e+01  5.3496250414792598e+01  1.2350483639188938e+02  1.2849239383763521e+02  1.3831888895728358e+02  1.3332552542515697e+02  1.4310733880161746e+02  8.5310197662691724e+02  8.5846075281036019e+02  8.6902623765830367e+02  8.6367149121514524e+02  8.7420794973186219e+02  9.1136947340036738e+02  9.1676264373638412e+02  9.2739820723910555e+02  9.2199816335824619e+02  9.3259075627272500e+02  7.9883656634248518e+02  7.9352343634747319e+02  7.8303206649507808e+02  7.8829851753160506e+02  7.7789712354925166e+02  4.3522771173129649e+02  4.4021840784937478e+02  4.5033357068016733e+02  4.4520746805934681e+02  4.4531086352260343e+02  4.5544452357240874e+02  9.7352066131790434e+02  9.6828376838641748e+02  9.5767041137185231e+02  9.6304524942702358e+02  9.6289253108330388e+02  9.5232617458889524e+02  7.0256162256244261e+02  6.9745436489646261e+02  6.8716271428693824e+02  6.9234385931488919e+02  6.9221624442700238e+02  6.8202235011738412e+02  6.4217685681385774e+02  6.4727421021908754e+02  6.5759647670240679e+02  6.5237053569345733e+02  6.5245777342558142e+02  6.6278680666700791e+02  9.4251196364633176e+02  9.5278015098513458e+02  9.4738623819334759e+02  6.7237789456193161e+02  6.8236113373584453e+02  6.7717692323163669e+02  6.6236427546009691e+02  6.6761085876807351e+02  4.6031397638808113e+02  4.5275537204738237e+02  4.5791408992878070e+02  4.6929468168014557e+02  4.7673825758534576e+02  4.7164674279263085e+02  6.3191573052040371e+02  6.4213471413499110e+02  6.4830123272410196e+02  6.3807321343647266e+02  6.4423304566000206e+02  9.8416922439397740e+02  9.7359954563466840e+02  9.6724367952013756e+02  9.7780529170590546e+02  9.7144575377461319e+02  7.1287641306702756e+02  7.0259713497750158e+02  6.9639227574744575e+02  7.0666167403270492e+02  7.0044928741397246e+02  4.2516537521077277e+02  4.3517747456405885e+02  4.4121421147623397e+02  4.3119377116845715e+02  4.3722347206510818e+02  3.1632251920986846e+02  3.2592610748665288e+02  3.2090937795620852e+02  3.0674113813113371e+02  3.1168164691505683e+02  1.5228944688251130e+02  1.6172188305577575e+02  1.5679108618046510e+02  4.3018367691102341e+01  5.3093000375249702e+01  4.8230215945279404e+01  1.4287760648926627e+02  1.4772747502951370e+02  9.3232645062681843e+02  9.3758025049664980e+02  7.6997672256223632e+02  7.7908886331659846e+02  7.7391780163002545e+02  4.4964467649665545e+02  4.4742847730201561e+02  4.4343042844654440e+02  9.5577161342703937e+02  9.5940795052333908e+02  9.6360710981651732e+02  6.8525083124315961e+02  6.8879834679483122e+02  6.9284592897502512e+02  6.5945879512224406e+02  6.5591721901797530e+02  6.5184154149973540e+02  5.2544177204214805e+02  5.3297357374740932e+02  5.2791874633926147e+02  8.1073978146030731e+02  7.9945666264078784e+02  8.1038673029057281e+02  8.9939752045433545e+02  9.1077058871734039e+02  8.9975851574424996e+02  8.4120193899674075e+02  8.5250661126683485e+02  8.4156546175461392e+02  1.1244337590439275e+02  1.2295614921606521e+02  1.1278322033432518e+02  8.4077700310732695e+01  7.3616007124315004e+01  8.3779476193456446e+01  5.6267519184420541e+02  5.5157468144173311e+02  5.6225792578559253e+02  1.9231423127994609e+02  1.8172808556266060e+02  1.9201462278075078e+02  2.2101459975838267e+02  2.3164945757634459e+02  2.2135875947821359e+02  2.7576479408205211e+02  2.8646397613741294e+02  2.7610611353693781e+02  3.5724595365491615e+02  3.4637912782015991e+02  3.5686421355028000e+02  5.0605490445118545e+02  4.9511149840226204e+02  5.0573904335767122e+02  4.7810470979288579e+02  4.8114237123949050e+02  4.8544382914231568e+02  3.2879360883903598e+02  3.3216035028057576e+02  3.3640013937928575e+02  3.0380748428036384e+02  3.0049383044291380e+02  2.9631398538668009e+02  5.3416665296083420e+02  5.3733956963904586e+02  5.4162784297533835e+02  2.4868470129782105e+02  2.4549107520630571e+02  2.4134351905422579e+02  1.6467701053495958e+02  1.6791381549250968e+02  1.7208463770841448e+02  5.9113505814014566e+01  6.1138841379279192e+01  6.5257810843963853e+01  1.4000063408664548e+02  1.3674292712123633e+02  1.3264023965110621e+02  7.8168746743622125e+02  7.8494704446768981e+02  7.8934059790980859e+02  9.2920365031517611e+02  9.2568263214941976e+02  9.2123707754715713e+02  8.7060728753847707e+02  8.6721550385721309e+02  8.6280261572810218e+02  7.5979865640182697e+02  7.6428597246030995e+02  1.0409044831743015e+03  1.0307837668006116e+03  1.0359568304371514e+03  1.0408363754314664e+03  1.0318755677918455e+03  1.0358832737718371e+03  1.0506015170877865e+03  1.0457382365774993e+03  1.0506677917915836e+03  1.0458345477084238e+03  2.5181070354940626e+01  3.6784484694610668e+01  2.7866762211764868e+01  3.0548750249307236e+01  3.4093118982414794e+01  1.1148115030587326e+03  1.1148711677332592e+03  1.1224680590313158e+03  1.1149276046973821e+03  1.1224128643816900e+03  1.1300183428722207e+03  1.1148153421115492e+03  1.1148756059021603e+03  1.1224709497589504e+03  1.1224156110270574e+03  1.1300183428722207e+03  1.0840345474980272e+03  1.0721976552547483e+03  1.0772704358202730e+03  1.0840775511503384e+03  1.0722564467024874e+03  1.0773488967390329e+03  1.3772817778589792e+01  1.3825484227781780e+01  6.9358934722370691e+00  1.3875635407914034e+01  6.8856373191264915e+00  0.0000000000000000e+00  4.0592604214193159e+02  3.9904465826557367e+02  4.0731878255354337e+02  3.9765302643620043e+02  4.0454271315066035e+02  6.1226934613443689e+02  6.0524507172310064e+02  6.1367804597822692e+02  6.0383716380631711e+02  6.1086900762200435e+02  7.3269619404869502e+02  7.3983497891583806e+02  7.3130454730072483e+02  7.4122206056629670e+02  7.3407647724818651e+02  1.0060055590612538e+03  1.0133353640774063e+03  1.0105322100559309e+03  1.0032196652290403e+03  1.0004196741513042e+03  1.3608484251782608e+01  1.3743231966007205e+01  6.9370512538579598e+00  6.8014349463441546e+00  0.0000000000000000e+00  3.7592245712410454e+02  3.8338553060927234e+02  3.7850777142430729e+02  5.8157796440799802e+02  5.8919371395111489e+02  5.8417872010855774e+02  7.6360075759001086e+02  7.5598324198662010e+02  7.6102470088606151e+02  1.0307703587189978e+03  1.0408993281901130e+03  1.0408837289206137e+03  1.0506232847016490e+03  1.0408641413291798e+03  1.0506532222135254e+03  1.0318974346516904e+03  7.5887818013558342e+02  7.6905540451455238e+02  7.6813611792163340e+02  3.8699085626438972e+02  3.8887826903025967e+02  3.9715706715275104e+02  3.8891541190893798e+02  3.9907911243731400e+02  5.9166482945352834e+02  5.9423617235301901e+02  6.0267184508147193e+02  5.9491574959861782e+02  6.0591864068102427e+02  1.0173797080137695e+03  1.0190218157177326e+03  1.0088970154565516e+03  7.5235996474459159e+02  7.5099023044587841e+02  7.6024922074887650e+02  7.4045308070667977e+02  7.4182759448219247e+02  7.5036734495596511e+02  1.0586349470707089e+03  1.0595341573641022e+03  1.0497576770354149e+03  1.0595036867180377e+03  1.0681549052160278e+03  1.0672851854847818e+03  1.0759344364792669e+03  1.0201489320890375e+03  1.0291288529505821e+03  1.0681830331643414e+03  4.0703434620765267e+02  3.9894360028179750e+02  4.0717542544207970e+02  6.1339458009957752e+02  6.0578258090991369e+02  6.1353598220372169e+02  7.3166616211476617e+02  7.4064127798463244e+02  7.3149420787839892e+02  3.2256021639305146e+02  3.1006047080347258e+02  1.5848519621322649e+02  5.1067531445822780e+01  1.4614078092924808e+02  9.3585349792873387e+02  1.0107033355108631e+03  1.0022283413653514e+03  1.0040271398002226e+03  1.0134679940313815e+03  3.1636023408325622e+02  3.1008203078109119e+02  3.1634337777565810e+02  3.2257585163953615e+02  1.5233208687306072e+02  1.4616467527065367e+02  1.5231268070034412e+02  4.4564600478187927e+01  5.1839129032228243e+01  4.3794397717250447e+01  1.5850356057827975e+02  9.4254660159480920e+02  9.3587304906159932e+02  9.4253126177147885e+02  3.6982940399046618e+02  3.8146329927452257e+02  3.7840893189123113e+02  3.7288107828669467e+02  5.7545124700571330e+02  5.8662406931597980e+02  5.8355668705933238e+02  5.7851818813039461e+02  7.5797555000237674e+02  7.6586544956807154e+02  7.7582786037929270e+02  7.7491244798842217e+02  1.1025242860675621e+03  1.0895065101200182e+03  1.0987528715850617e+03  1.0949827947258680e+03  1.0932788112325093e+03  1.1025243539027676e+03  1.0895208960377918e+03  1.0987547560322650e+03  1.0932945521825482e+03  1.0800025392174418e+03  1.0799793627912977e+03  2.5844040774349293e+02  2.5036336080560969e+02  2.5527777106345349e+02  8.8098380986887310e+02  8.7239789749923341e+02  8.7762496711334643e+02  9.4914366693569218e+02  6.6590940510231485e+02  6.7881175909879937e+02  9.4915816111049276e+02  6.7232934236885410e+02  6.6589389138454055e+02  6.7235102001478811e+02  6.7879036742316907e+02  4.6474560303991080e+02  4.7369999207861491e+02  4.7142529413191403e+02  4.6701931201620033e+02  5.4912892485223017e+02  5.3973305832876122e+02  5.5001919443640759e+02  2.8870552348775618e+02  2.8786721395838197e+02  2.9785189168784729e+02  3.4392801891192312e+02  3.3473205691019729e+02  3.4481232393843834e+02  4.9270644106537731e+02  4.8336818013700110e+02  4.9360282447615714e+02  7.1312921551324180e+01  6.2390583666416489e+01  7.2171028320509748e+01  1.2515343284067737e+02  1.2433011547461136e+02  1.3413995599050190e+02  1.7939057037617209e+02  1.7036262346556495e+02  1.8026058553211863e+02  2.3387621391041944e+02  2.3304256952094545e+02  2.4297053985784248e+02  8.5488281085924746e+02  8.5399405211920623e+02  8.6454936897618200e+02  9.1315813381186581e+02  9.1226564347742237e+02  9.2288252004478557e+02  7.9703337995656113e+02  7.8741639367793437e+02  7.9794536318987753e+02  3.8074155884939296e+02  3.7216420836793890e+02  3.7448842558896752e+02  5.8605529045541982e+02  5.7794949182612834e+02  5.8044045946673589e+02  5.1892038815044509e+02  5.1284879810974019e+02  5.1964729987160558e+02  5.1212255909535929e+02  5.1819455382913964e+02  8.2529479527556896e+02  8.1836146830477253e+02  8.2597361630833666e+02  8.1767378811319861e+02  8.2462753601941529e+02  8.2665591850329110e+02  8.3358572531132040e+02  8.3427143517720219e+02  8.2734064690860555e+02  5.2980091600459070e+02  5.2254117972707024e+02  5.2690669607092559e+02  3.8262704083445664e+02  5.8930288043788596e+02  3.7554509913462169e+01  4.0209062851350836e+02  6.0836628870135394e+02  1.0086059350153811e+03  7.3657982912952411e+02  3.7771094529248040e+02  5.8369933042046910e+02  4.5497418823938006e+02  4.5719405987403269e+02  4.6252986937193344e+02  6.3025825151182084e+02  6.4129886470559143e+02  6.3108827979542059e+02  9.8587041365752145e+02  9.7445036508001760e+02  9.8502458973243495e+02  7.1435717280932340e+02  7.0333534393518005e+02  7.1362071880682618e+02  4.2376458862118511e+02  4.3447135068485778e+02  4.2446635518510089e+02  2.0666204545350345e+02  2.1385081828328020e+02  2.0669044526124426e+02  2.1382265251465753e+02  2.0663323483593123e+02  1.9950052089912492e+02  1.9947149259305326e+02  9.8256907940214361e+01  1.0536191230247434e+02  9.8283281488560519e+01  1.0533528459276604e+02  9.8230275828500623e+01  9.1178139806995915e+01  9.1151860595046799e+01  1.0854585076049482e+03  4.3679286105190795e+02  4.3602117851685028e+02  4.4608226468440029e+02  9.7184514723087841e+02  9.6207237015322323e+02  9.7268270949649298e+02  7.0096934151316043e+02  6.9144053719001033e+02  7.0177206582572251e+02  6.4376882191947300e+02  6.4298251712084823e+02  6.5324692226546006e+02  5.3108752285288483e+02  5.2536583494884110e+02  5.2464008348670882e+02  8.3743770332029192e+02  8.3170527760051675e+02  8.3102813004515019e+02  8.1451843235989531e+02  8.2024505416580075e+02  8.2092741849277570e+02  2.6269839032505564e+02  2.5356088525187536e+02  2.5568983515581451e+02  2.6057231515132946e+02  8.8550382404356696e+02  8.7579388659819767e+02  8.7805357852183454e+02  8.8324659591495765e+02  0.0000000000000000e+00  0.0000000000000000e+00  6.9372086920102891e+00  1.1300183428722207e+03  1.1300183428722207e+03  1.1224712766153093e+03  1.1300183428722207e+03  0.0000000000000000e+00  4.0340515816640101e+02  6.0967782594831135e+02  1.0075961873397641e+03  7.3547865772085640e+02  1.1086652606550256e+03  1.1087228892909238e+03  1.1086690938320173e+03  1.1087249400153610e+03  5.4320300817587466e+01  4.5985492779873596e+01  5.3963590519566971e+01  5.3633278856551854e+01  4.6355034424651897e+01  3.8374816979580793e+01  4.1539731339313914e+02  4.1554167307630769e+02  6.2182540874189158e+02  6.2196785670394229e+02  7.2301058014227795e+02  7.2282929428458044e+02  9.9494351005536600e+02  9.9314460668256152e+02  3.6586190081244922e+02  3.6353596772682909e+02  5.7155368518216801e+02  5.6906590022692069e+02  3.5591604396375615e+01  3.7014957979919743e+01  4.4596813338738457e+01  1.9473399153933315e+01  1.9530083821059232e+01  2.6710298863072074e+02  2.6922759433244420e+02  8.9019066254747293e+02  8.9244665552460742e+02  2.4307965974059698e+01  1.8955051553332297e+01  1.9090425649163915e+01  2.6442402631470105e+02  2.7309293782445735e+02  2.7045634141229425e+02  8.8734592023408982e+02  8.9655958572450618e+02  8.9375537712540768e+02  4.1978993233789629e+02  4.1355183107674395e+02  4.1216481288753130e+02  6.2666408826526197e+02  6.2016867563594985e+02  6.1876456245443433e+02  7.1812774539938835e+02  7.2471400185140419e+02  7.2610159997802714e+02  9.9021381495359617e+02  9.9531694343889501e+02  9.9810107072629660e+02  3.6842988650875503e+02  3.5981276454354128e+02  3.6233991388606830e+02  5.7422084430917869e+02  5.6534330410764994e+02  5.6798538771087465e+02  3.4839531165028113e+01  2.5931815553771514e+01  2.6675468238835592e+01  8.9379063188952273e+02  8.8367637395769691e+02  8.7953258899294303e+02  8.7356752284303923e+02  8.8964792012823955e+02  1.5237074880214686e+02  1.5726363263102587e+02  1.6219519407737155e+02  1.4744165209235365e+02  1.4255482310916099e+02  3.2538670699629193e+02  3.1588979477462397e+02  3.1137870425551540e+02  3.0640332237608197e+02  3.2087380422085431e+02  1.9771811742469257e+02  2.0667410638178836e+02  2.1116346430960832e+02  2.1564199856100501e+02  2.0220395890568474e+02  8.9411261082528483e+01  9.8265999603299221e+01  1.0270418105217429e+02  1.0713133344134513e+02  9.3847032829951331e+01  2.7049603658786219e+02  2.5708364462668112e+02  2.6659822472390022e+02  2.6098262540670248e+02  2.5147421111182220e+02  3.6017927161325957e+02  3.6500760783229799e+02  3.6804602258393578e+02  5.6617113130613643e+02  5.7081291495321466e+02  5.7387099523046766e+02  7.7988573126102006e+02  7.7400813004661723e+02  7.7174506566405626e+02  4.5358335837536890e+02  4.5916554268213031e+02  4.6143418252126696e+02  5.1073410105155114e+02  5.1519321690815002e+02  5.1808641673505622e+02  4.6763048441523568e+02  4.6984147756530365e+02  4.7493856532813817e+02  6.6239346993181869e+02  6.7742765089580598e+02  6.6736007472043889e+02  6.7245834959744866e+02  6.8252903333147083e+02  9.5279700754224041e+02  9.4237123183558560e+02  9.3724903678187968e+02  9.3195778434866122e+02  9.4767274016685144e+02  3.4459293319296123e+01  4.1473980445505205e+01  3.5146732500221583e+02  3.5403217520080489e+02  5.0027432878375271e+02  5.0874625121781179e+02  5.0296404322234821e+02  5.1141801546923608e+02  1.8671971216570867e+02  1.9491027852125202e+02  1.8931285327285130e+02  1.9747702955299343e+02  8.0478884455492721e+02  8.1355050751079625e+02  8.0756655044296690e+02  8.1630607026043958e+02  2.2660997479336416e+02  2.1835197657501550e+02  2.2394507481976953e+02  2.1571971351571221e+02  9.0538422243276091e+02  9.0254191475799053e+02  8.4715181643691244e+02  8.3837702022436383e+02  8.4432489646922818e+02  8.3559233518833298e+02  1.1797419811308852e+02  1.0981225618134377e+02  1.1534001647783900e+02  1.0721214536119842e+02  7.8550302514531509e+01  8.6645714744896878e+01  8.1115444197315298e+01  8.9183195185048262e+01  2.8139577378077485e+02  2.7872036596477693e+02  5.5678233133796334e+02  5.5941631002845372e+02  6.3348697691385041e+02  6.2755672969685895e+02  6.2488627137167782e+02  6.3621530067826723e+02  7.1129802903096584e+02  7.1724500871034923e+02  7.2009671936096811e+02  7.0845606543063832e+02  9.8247457412393476e+02  9.8866797633154181e+02  9.9141428348837258e+02  9.7969283188257100e