<?xml version="1.0"?>
<VTKFile type="UnstructuredGrid"  version="0.1"  >
<UnstructuredGrid>
<Piece  NumberOfPoints="2690" NumberOfCells="4864">
<Points>
<DataArray  type="Float64"  NumberOfComponents="3"  format="ascii">-5.033660684814344 22.00739393362551 0  -5.630813895429615 21.26996835267639 0  -5.032987735021955 21.50800131422142 0  -5.032217144951981 21.00744230582027 0  -5.631469907529898 21.77010070789816 0  -6.229303906442442 21.53161263516902 0  -9 21.99999999996945 0  -8.401789207419373 21.264045259901 0  -9 21.49999999997139 0  -9 20.99999999997333 0  -8.4019058805365 21.7640365891829 0  -7.803701565599184 21.52805398309618 0  -9 32.9999999999446 0  -8.404352406553699 32.2640212824689 0  -9 32.49999999994358 0  -9 31.99999999994255 0  -8.404469123147736 32.7640234135856 0  -7.808827580621217 32.5280295094703 0  -5.050675378572135 33.00799740645336 0  -5.562891039240686 32.30427122771309 0  -5.049969125931985 32.50905729884964 0  -5.04916442346653 32.00774310518167 0  -5.563566758775865 32.80447474402784 0  -6.076483365754816 32.59980710193639 0  -5.083440369806787 54.00764108369603 0  -5.674897033190526 54.74478259102106 0  -5.674251733650215 54.24509971074249 0  -6.2649886445662 54.48144173851844 0  -5.084178763672782 54.50819148038814 0  -5.084869062319231 55.00771888961112 0  -9 54.99999999998974 0  -8.481036863002439 54.29742004122136 0  -9 54.49999999998872 0  -9 53.99999999998769 0  -8.481138127754079 54.79738890907441 0  -7.962195564843231 54.59478772354316 0  -9 39.99999999995897 0  -8.406333991048689 40.73899785426816 0  -8.406217284354355 40.23899935845125 0  -7.812545814426608 40.47797697451954 0  -9 40.49999999996 0  -9 40.99999999996102 0  -5.063084302707448 41.00708854957092 0  -5.629513058278836 40.2754429110209 0  -5.06238569926512 40.50822983356194 0  -5.061638457993412 40.00798154413638 0  -5.630170838810709 40.77532248435086 0  -6.19730282909639 40.54226546319696 0  -9 55.99999999999179 0  -8.434340001411266 56.74471406658773 0  -8.434239700592467 56.2446945262428 0  -7.868584491431217 56.48938832093451 0  -9 56.49999999999282 0  -9 56.99999999999384 0  -5.086546027325517 56.00730513758007 0  -5.653238137846431 56.75064587950006 0  -5.652597248917208 56.25061544304337 0  -6.218552310627451 56.49301334339417 0  -5.08733086729491 56.50843616107042 0  -5.088018388457793 57.00774047540748 0  -7.463373493785606 43.00418472757235 0  -6.629639003182088 43.1147059996531 0  -7.229052725799042 43.34223136105598 0  -6.994793453239335 43.68028418287133 0  -6.863899292281214 42.77661399529843 0  -6.264317251739827 42.54904420105777 0  -6.60851121454169 49.0078894408173 0  -7.440318152209236 48.89692667086656 0  -6.842221014516279 48.66978681663122 0  -7.07599659391668 48.33166110107813 0  -7.206547372770761 49.23501324978095 0  -7.80447389742736 49.46219368637246 0  -6.605671579964177 46.00741253718411 0  -7.438467802380298 45.89661981660601 0  -6.839665026134266 45.6692251210287 0  -7.073722360470396 45.3310758433773 0  -7.204415071378786 46.23476399786313 0  -7.803050986146662 46.46208746757325 0  -6.56897816199357 7.007682711625244 0  -7.414539114679005 6.896831367470145 0  -6.806564403749105 6.669575737783326 0  -7.044214599434762 6.331470699123527 0  -7.176893564173921 7.234935516142118 0  -7.78470209241409 7.462182343099111 0  -7.455502988848801 30.00413759808497 0  -6.617495908422134 30.11460195465513 0  -7.219982434428672 30.34207180424726 0  -6.984524331721837 30.67998083068644 0  -6.852956666173119 29.77664330452788 0  -6.250301110702244 29.54918917196433 0  -6.566241144365763 4.007316656076548 0  -7.412896261336333 4.112944192788128 0  -6.804652470171516 4.344002493460161 0  -7.043005836189775 4.680663991211794 0  -7.17454671062699 3.77626740613457 0  -7.782944366476585 3.545266636867558 0  -6.571768447926625 10.00775059633936 0  -7.416487731619717 10.1132342140481 0  -6.809646113046422 10.34433942482984 0  -7.047464173102965 10.68092842097397 0  -7.178665236851223 9.776652426439462 0  -7.785669804897391 9.545545601402434 0  -6.574565359772976 13.0078164440985 0  -7.418179809696638 12.89693913285906 0  -6.811601850723011 12.66971200464492 0  -7.048701912143262 12.33161017226022 0  -7.181082742857378 13.2350525339376 0  -7.787494785058373 13.46226635237845 0  -6.577373777681313 16.0079360827118 0  -7.420012761723127 15.89697379796165 0  -6.814134440563963 15.66984031303663 0  -7.050959678683416 15.3317254567517 0  -7.183192109604977 16.2350602038239 0  -7.788902539736619 16.46222911038473 0  -6.580215272458236 19.00710676749659 0  -7.422000003226444 19.11273241538237 0  -6.817278673808764 19.34356956217271 0  -7.054277178262294 19.68007700607339 0  -7.184996707205052 18.77620236471519 0  -7.789888693044946 18.54527726110657 0  -6.587748827619865 27.00684083466647 0  -7.426913048497955 27.11256563546848 0  -6.824069408285728 27.34345304046346 0  -7.060328534817786 27.68007586433307 0  -7.190650912579316 26.77590097590777 0  -7.793659958858407 26.54502317686318 0  -8.274467729871379 19.09599481196181 0  -8.032204554503945 18.8206243436732 0  -8.394879935585061 18.27265925935735 0  -8.637155741222386 18.54802973012883 0  -9 17.99999999998495 0  -8.276727094208239 27.09591094212834 0  -8.035219419106838 26.8204679695117 0  -8.39676644386074 26.27250482421267 0  -8.638286515028012 26.54795410719827 0  -9 25.99999999995395 0  -8.273562400820149 15.9084535065518 0  -8.031206351876323 16.18534551298459 0  -8.394515037697676 16.73109775285785 0  -8.636858472496161 16.45421455227371 0  -9 16.99999999998883 0  -5.768667031654911 30.10293978833952 0  -6.009456115487676 29.82605495182339 0  -5.647477094332058 29.28002396083436 0  -5.406671373125413 29.55725590020355 0  -5.044424362634312 29.00738168066417 0  -8.272719238821225 12.90845074109437 0  -8.030081116882291 13.18535698968954 0  -8.393810439732153 13.73113639387469 0  -8.636436270430695 13.45422895367826 0  -9 13.99999999999401 0  -8.271933375671605 10.09622986803748 0  -8.028827172001048 9.820888046931202 0  -8.39277179115175 9.272771570327453 0  -8.635890541322217 9.548113459632173 0  -9 8.99999999999857 0  -8.270287473688855 4.096092617843465 0  -8.026639266258721 3.820685810828118 0  -8.391421023876219 3.272622583478968 0  -8.635075848560273 3.548030958564164 0  -9 2.999999999998668 0  -8.271046019500377 6.908396812057338 0  -8.027848298863574 7.185288104428754 0  -8.39241381170836 7.731093391231048 0  -8.635599023181401 7.454202917971593 0  -9 7.999999999999485 0  -8.282047619071067 45.90829935234918 0  -8.042523283784766 46.18518485594797 0  -8.401589144398281 46.73105708390908 0  -8.641100848075416 46.45417233463451 0  -9 46.99999999997333 0  -8.282898385557493 48.90842760317646 0  -8.043659678089345 49.18531476363102 0  -8.402301357966149 49.73107948931273 0  -8.641527384732459 49.45420308671548 0  -9 49.99999999997949 0  -5.785144349009351 43.10302870376707 0  -6.02470235394999 42.82603276132831 0  -5.664566131081893 42.27977577138373 0  -5.424993322610622 42.55715897932232 0  -5.064579181191617 42.0070840874367 0  -5.756172150509317 23.9254482380607 0  -6.002965567434931 24.19238674250278 0  -5.643988070308252 24.73510342368634 0  -6.249703895356164 24.45934929870044 0  -5.397228903473262 24.46851531758854 0  -5.038379420002839 25.00735637836206 0  -8.288456155564619 52.08574401604942 0  -8.044586616681297 51.81876111125803 0  -8.40026657466546 51.27591977232031 0  -7.800664859792033 51.55179900841846 0  -8.644150865381034 51.54290222265654 0  -9 50.99999999998153 0  -5.774109958757443 38.09269997548575 0  -6.018909683778832 37.82411522903273 0  -5.660408140648931 37.2830507306647 0  -6.263764093071299 37.55555761629955 0  -5.415589965410085 37.55205356491169 0  -5.056800585468772 37.00675500716216 0  -5.770093676712931 34.92537614476716 0  -6.015832481694029 35.19226197723361 0  -5.658404563163918 35.73488716149541 0  -6.261516298374323 35.45917112043227 0  -5.412695238382276 35.46840327026688 0  -5.055407259263564 36.00702936867796 0  -7.90550761871968 50.50360502343281 0  -7.853075094425354 51.02771129435101 0  -8.452808257039308 50.75178307634697 0  -6.156856405911411 36.50730151437163 0  -6.210318600327875 37.03138341245707 0  -5.6068400742794 36.75833901921684 0  -6.209177079100506 35.98318961140396 0  -5.606180990611026 36.25826179986822 0  -6.005998515940422 25.26798840516236 0  -6.127834689665989 24.86368540787024 0  -5.522213594860389 25.13902134758502 0  -8.037103520313865 25.74847024521155 0  -7.915362845498468 26.14674647743965 0  -8.518575412293274 25.8742363113694 0  -6.969525282428249 34.38129139633848 0  -6.615444487952376 34.92027233605818 0  -6.869227330195178 35.24409481352154 0  -7.223317055275045 34.70517425753152 0  -7.477043588856315 35.02904409592863 0  -7.09709427998796 52.62947226428341 0  -7.448803151469825 52.09067471840093 0  -7.196769008785237 51.76696649257438 0  -6.845068051175621 52.30578616086132 0  -6.592975847238698 51.98212148597064 0  -6.972917061646137 38.6294406616302 0  -6.618416597809579 38.09254149423789 0  -6.871338482685644 37.76727572974573 0  -7.225830651125804 38.30423890488844 0  -7.478809244826707 37.97902168267431 0  -6.960776158919593 23.38133121737294 0  -6.605164482868642 23.9203653646649 0  -6.860037641536985 24.24422099717618 0  -7.215658727347059 23.70523813396182 0  -7.470476464601468 24.0291243423281 0  -7.891386768721471 17.50346205014792 0  -7.840626905445196 18.02438063190139 0  -8.445747580463186 17.75171086997013 0  -7.840154865294584 16.98284961784863 0  -8.445639227734086 17.25174213974945 0  -7.88753299968313 8.503543192969701 0  -7.836591293798424 9.024545092653909 0  -8.443819475091367 8.751772396987109 0  -7.93234879146742 2.418675028633302 0  -7.857624883427475 2.9819614522351 0  -8.466224670750981 2.70934794625533 0  -7.836127764168142 7.982864709618251 0  -8.443713141242956 8.251769099954828 0  -7.855001301553125 49.98290372955707 0  -8.45269900435339 50.25181385311892 0  -6.074212635092563 41.60027067162024 0  -6.169281657064873 42.07468856552431 0  -5.
[...]
<PointData  Vectors="f_27"> 
<DataArray  type="Float64"  Name="f_27"  NumberOfComponents="3" format="ascii">0.0000000000000000e+00 0.0000000000000000e+00 0.0000000000000000e+00  2.6836227130569144e-06 -7.5228040735639328e-03 0.0000000000000000e+00  0.0000000000000000e+00 0.0000000000000000e+00 0.0000000000000000e+00  0.0000000000000000e+00 0.0000000000000000e+00 0.0000000000000000e+00  -1.1216923189757583e-05 -1.0529961560227683e-02 0.0000000000000000e+00  1.5733160392909180e-06 -1.0835477109591297e-02 0.0000000000000000e+00  0.0000000000000000e+00 0.0000000000000000e+00 0.0000000000000000e+00  1.2437989458263032e-05 -7.6593102422698378e-03 0.0000000000000000e+00  0.0000000000000000e+00 0.0000000000000000e+00 0.0000000000000000e+00  0.0000000000000000e+00 0.0000000000000000e+00 0.0000000000000000e+00  3.6509950832741541e-05 -1.0507826962079669e-02 0.0000000000000000e+00  2.3702942419386898e-05 -1.0880512439792166e-02 0.0000000000000000e+00  0.0000000000000000e+00 0.0000000000000000e+00 0.0000000000000000e+00  1.1796981061980539e-05 -7.4931275687447636e-03 0.0000000000000000e+00  0.0000000000000000e+00 0.0000000000000000e+00 0.0000000000000000e+00  0.0000000000000000e+00 0.0000000000000000e+00 0.0000000000000000e+00  3.5630214328225770e-05 -1.0474045503574893e-02 0.0000000000000000e+00  2.3619568542523470e-05 -1.0847494141361210e-02 0.0000000000000000e+00  0.0000000000000000e+00 0.0000000000000000e+00 0.0000000000000000e+00  3.4244306308151478e-06 -7.8694290609637139e-03 0.0000000000000000e+00  0.0000000000000000e+00 0.0000000000000000e+00 0.0000000000000000e+00  0.0000000000000000e+00 0.0000000000000000e+00 0.0000000000000000e+00  -1.2347080549879983e-06 -1.0518718193450965e-02 0.0000000000000000e+00  6.8537924637731859e-06 -1.0876290333822151e-02 0.0000000000000000e+00  0.0000000000000000e+00 0.0000000000000000e+00 0.0000000000000000e+00  1.0233995963093014e-05 -7.7973811867871013e-03 0.0000000000000000e+00  3.4236621071284085e-05 -1.0439337550901517e-02 0.0000000000000000e+00  2.1225808635380066e-05 -1.0796031921374693e-02 0.0000000000000000e+00  0.0000000000000000e+00 0.0000000000000000e+00 0.0000000000000000e+00  0.0000000000000000e+00 0.0000000000000000e+00 0.0000000000000000e+00  0.0000000000000000e+00 0.0000000000000000e+00 0.0000000000000000e+00  8.7029660486478464e-06 -7.7848386625313957e-03 0.0000000000000000e+00  0.0000000000000000e+00 0.0000000000000000e+00 0.0000000000000000e+00  0.0000000000000000e+00 0.0000000000000000e+00 0.0000000000000000e+00  1.6012007897481746e-05 -1.0535473680429137e-02 0.0000000000000000e+00  1.4957575509444285e-05 -1.0822374472897299e-02 0.0000000000000000e+00  0.0000000000000000e+00 0.0000000000000000e+00 0.0000000000000000e+00  7.9016355857064201e-06 -7.4575489575557418e-03 0.0000000000000000e+00  -6.6644525160334608e-06 -1.0458168339923355e-02 0.0000000000000000e+00  4.9334048146917175e-06 -1.0825490557798998e-02 0.0000000000000000e+00  0.0000000000000000e+00 0.0000000000000000e+00 0.0000000000000000e+00  0.0000000000000000e+00 0.0000000000000000e+00 0.0000000000000000e+00  0.0000000000000000e+00 0.0000000000000000e+00 0.0000000000000000e+00  1.3307245203373051e-05 -7.5944899770264366e-03 0.0000000000000000e+00  0.0000000000000000e+00 0.0000000000000000e+00 0.0000000000000000e+00  0.0000000000000000e+00 0.0000000000000000e+00 0.0000000000000000e+00  2.2676342041956884e-06 -1.0577423755401100e-02 0.0000000000000000e+00  9.9813284407913451e-06 -1.0850184416865402e-02 0.0000000000000000e+00  0.0000000000000000e+00 0.0000000000000000e+00 0.0000000000000000e+00  1.8074735023173491e-05 -8.0823870013781527e-03 0.0000000000000000e+00  3.1297174525707478e-06 -1.0471789988690933e-02 0.0000000000000000e+00  1.5754533256674141e-05 -1.0811662725337387e-02 0.0000000000000000e+00  0.0000000000000000e+00 0.0000000000000000e+00 0.0000000000000000e+00  0.0000000000000000e+00 0.0000000000000000e+00 0.0000000000000000e+00  0.0000000000000000e+00 0.0000000000000000e+00 0.0000000000000000e+00  1.6160727401332227e-06 -8.0844429953362048e-03 0.0000000000000000e+00  2.0844445585789639e-05 -1.0471026603495000e-02 0.0000000000000000e+00  1.0081200066057209e-05 -1.0807661619442525e-02 0.0000000000000000e+00  0.0000000000000000e+00 0.0000000000000000e+00 0.0000000000000000e+00  0.0000000000000000e+00 0.0000000000000000e+00 0.0000000000000000e+00  2.0557570118574552e-05 -1.1131433615219689e-02 0.0000000000000000e+00  2.2008444629508484e-05 -1.1139406239863960e-02 0.0000000000000000e+00  1.9260831536227643e-05 -1.1140419095173796e-02 0.0000000000000000e+00  1.8022659616600650e-05 -1.1140741961385594e-02 0.0000000000000000e+00  2.0689365470606318e-05 -1.1139400436065363e-02 0.0000000000000000e+00  1.5273135806095605e-05 -1.1099514091668107e-02 0.0000000000000000e+00  2.6720804382422983e-05 -1.1110055262899472e-02 0.0000000000000000e+00  2.4639385478559133e-05 -1.1104843260557816e-02 0.0000000000000000e+00  2.6982654156382187e-05 -1.1119421473609847e-02 0.0000000000000000e+00  2.6484310529308250e-05 -1.1113947193865941e-02 0.0000000000000000e+00  2.3794772837881469e-05 -1.1116646444823344e-02 0.0000000000000000e+00  1.7993611295597019e-05 -1.1075673659910757e-02 0.0000000000000000e+00  1.8912507274021435e-05 -1.1119920321057616e-02 0.0000000000000000e+00  1.7204054311522361e-05 -1.1125662326287457e-02 0.0000000000000000e+00  1.6767396967545224e-05 -1.1129961380966795e-02 0.0000000000000000e+00  1.5273476603285183e-05 -1.1132837473388960e-02 0.0000000000000000e+00  1.8178439913186449e-05 -1.1124164432831490e-02 0.0000000000000000e+00  1.4343358805487015e-05 -1.1081400349070502e-02 0.0000000000000000e+00  2.0165746155612758e-05 -1.1212404067993072e-02 0.0000000000000000e+00  1.7550422098964918e-05 -1.1219209546855907e-02 0.0000000000000000e+00  1.8898927838212895e-05 -1.1222586060285464e-02 0.0000000000000000e+00  1.9651955535809767e-05 -1.1223973844214570e-02 0.0000000000000000e+00  1.7683679436888275e-05 -1.1219807591033939e-02 0.0000000000000000e+00  1.2849993396155588e-05 -1.1181173012578254e-02 0.0000000000000000e+00  1.6916517923096607e-05 -1.1157562064221494e-02 0.0000000000000000e+00  2.2927577381391741e-05 -1.1154321020925190e-02 0.0000000000000000e+00  1.6937265669356262e-05 -1.1170221317607235e-02 0.0000000000000000e+00  1.7029936195204326e-05 -1.1162679546437794e-02 0.0000000000000000e+00  2.0226431132150280e-05 -1.1164393499759746e-02 0.0000000000000000e+00  1.8549324609958377e-05 -1.1121050926678453e-02 0.0000000000000000e+00  2.4243764272089898e-05 -1.1224009303470986e-02 0.0000000000000000e+00  2.3230912584289931e-05 -1.1226994330988669e-02 0.0000000000000000e+00  2.4023523363180698e-05 -1.1231131039154971e-02 0.0000000000000000e+00  2.2703800614440178e-05 -1.1229770664553470e-02 0.0000000000000000e+00  2.3407943619341751e-05 -1.1229081591801195e-02 0.0000000000000000e+00  2.5752347038178722e-05 -1.1191827422574945e-02 0.0000000000000000e+00  2.6778315244087358e-05 -1.1207778611317349e-02 0.0000000000000000e+00  2.5397988321352313e-05 -1.1210953899519056e-02 0.0000000000000000e+00  2.5255426458685210e-05 -1.1214602248965441e-02 0.0000000000000000e+00  2.3759160286062039e-05 -1.1213584344125747e-02 0.0000000000000000e+00  2.7444501873588705e-05 -1.1213260194097383e-02 0.0000000000000000e+00  3.1391999742542601e-05 -1.1169422724918276e-02 0.0000000000000000e+00  2.0537016749077385e-05 -1.1196754919941475e-02 0.0000000000000000e+00  1.8966628946107375e-05 -1.1203613782189353e-02 0.0000000000000000e+00  1.9745323156830036e-05 -1.1207046189381615e-02 0.0000000000000000e+00  2.0809125282982648e-05 -1.1208547853155100e-02 0.0000000000000000e+00  1.8504213825168317e-05 -1.1203210445261484e-02 0.0000000000000000e+00  1.4199680989888314e-05 -1.1161608790681165e-02 0.0000000000000000e+00  2.5726043133008006e-05 -1.1191755117465858e-02 0.0000000000000000e+00  2.3766554466639071e-05 -1.1186171009929696e-02 0.0000000000000000e+00  2.6058444153030581e-05 -1.1200824811556983e-02 0.0000000000000000e+00  2.5654825461177356e-05 -1.1195190688957231e-02 0.0000000000000000e+00  2.2760533820142304e-05 -1.1198166838272350e-02 0.0000000000000000e+00  1.7065274739115864e-05 -1.1157094673811095e-02 0.0000000000000000e+00  3.3269167237919791e-05 -1.1182535726604631e-02 0.0000000000000000e+00  2.5584383949114955e-05 -1.1181497624216939e-02 0.0000000000000000e+00  3.0542712376021697e-05 -1.1195716122294459e-02 0.0000000000000000e+00  2.5271762150497911e-05 -1.1187411240015063e-02 0.0000000000000000e+00  2.9800657390329753e-05 -1.1193294984873016e-02 0.0000000000000000e+00  3.1820692493764192e-05 -1.1147860129291549e-02 0.0000000000000000e+00  2.8857667390977303e-05 -1.1162599046192474e-02 0.0000000000000000e+00  2.5160939861041281e-05 -1.1172872252240907e-02 0.0000000000000000e+00  2.8350624432181744e-05 -1.1174950090056248e-02 0.0000000000000000e+00  2.4953573282117073e-05 -1.1170697932049365e-02 0.0000000000000000e+00  2.5128806287266324e-05 -1.1173545754904200e-02 0.0000000000000000e+00  2.6078050196333110e-05 -1.1135113067431587e-02 0.0000000000000000e+00  1.6712956472111096e-05 -1.0484232271518798e-02 0.0000000000000000e+00  2.7762648542016646e-05 -1.1080066076820017e-02 0.0000000000000000e+00  3.5962716060754926e-05 -1.0605521308705755e-02 0.0000000000000000e+00  2.2078935362192314e-05 -7.5478923468300175e-03 0.0000000000000000e+00  0.0000000000000000e+00 0.0000000000000000e+00 0.0000000000000000e+00  1.8564835824637011e-05 -1.0474717162854698e-02 0.0000000000000000e+00  2.3429245367915126e-05 -1.1062921763353304e-02 0.0000000000000000e+00  2.7682493006354440e-05 -1.0591405930061854e-02 0.0000000000000000e+00  1.7975462960058764e-05 -7.5255832282411332e-03 0.0000000000000000e+00  0.0000000000000000e+00 0.0000000000000000e+00 0.0000000000000000e+00  1.8060360569081415e-05 -1.0501710519503472e-02 0.0000000000000000e+00  1.3159085657450197e-05 -1.1082312400830598e-02 0.0000000000000000e+00  4.6473262589963239e-06 -1.0676997326315310e-02 0.0000000000000000e+00  -1.2025471846262253e-07 -7.4788900659202035e-03 0.0000000000000000e+00  0.0000000000000000e+00 0.0000000000000000e+00 0.0000000000000000e+00  2.6461117293677026e-05 -1.0458318066468329e-02 0.0000000000000000e+00  3.1399976907964918e-05 -1.1049079349039388e-02 0.0000000000000000e+00  8.6550352852628057e-06 -1.0592375429444347e-02 0.0000000000000000e+00  8.0908936708475530e-06 -7.5308952658326113e-03 0.0000000000000000e+00  0.0000000000000000e+00 0.0000000000000000e+00 0.0000000000000000e+00  1.8627899725287085e-05 -1.0502738825992284e-02 0.0000000000000000e+00  1.4265122401238081e-05 -1.1089577021662321e-02 0.0000000000000000e+00  7.1128091704922387e-06 -1.0622080973314343e-02 0.0000000000000000e+00  6.6849147601482506e-06 -7.5549504924097739e-03 0.0000000000000000e+00  0.0000000000000000e+00 0.0000000000000000e+00 0.0000000000000000e+00  2.1699491135041805e-05 -1.0507407829822459e-02 0.0000000000000000e+00  2.9360564757508930e-05 -1.1097954211357322e-02 0.0000000000000000e+00  3.6420914438699296e-05 -1.0623429914176705e-02 0.0000000000000000e+00  2.3610464701757624e-05 -7.5674084740680074e-03 0.0000000000000000e+00  0.0000000000000000e+00 0.0000000000000000e+00 0.0000000000000000e+00  2.1852971187879758e-05 -1.0538545796014787e-02 0.0000000000000000e+00  2.6881395639508170e-05 -1.1113091756193103e-02 0.0000000000000000e+00  3.2220537203199967e-05 -1.0710830495377381e-02 0.0000000000000000e+00  2.5900907965730151e-05 -7.5128452120954321e-03 0.0000000000000000e+00  0.0000000000000000e+00 0.0000000000000000e+00 0.0000000000000000e+00  1.3392717525476604e-05 -1.0530984707781363e-02 0.0000000000000000e+00  9.3211416885005279e-06 -1.1104204820388413e-02 0.0000000000000000e+00  2.1141736375221179e-06 -1.0697187802799664e-02 0.0000000000000000e+00  -1.8807038234309300e-06 -7.5016286024521478e-03 0.0000000000000000e+00  0.0000000000000000e+00 0.0000000000000000e+00 0.0000000000000000e+00  1.9484633472484892e-05 -1.0418397542366722e-02 0.0000000000000000e+00  1.4537765700797096e-05 -1.1007748882285786e-02 0.0000000000000000e+00  7.7262815674367333e-06 -1.0543746105537597e-02 0.0000000000000000e+00  6.9889842429979629e-06 -7.4693743712420761e-03 0.0000000000000000e+00  0.0000000000000000e+00 0.0000000000000000e+00 0.0000000000000000e+00  1.8654578207142520e-05 -1.0417343667518699e-02 0.0000000000000000e+00  1.4027736933322170e-05 -1.0999924046664552e-02 0.0000000000000000e+00  5.7519078244048457e-06 -1.0598039039092639e-02 0.0000000000000000e+00  6.7021291937103401e-07 -7.3940176068255335e-03 0.0000000000000000e+00  0.0000000000000000e+00 0.0000000000000000e+00 0.0000000000000000e+00  2.3530642566724262e-05 -1.0434993639406717e-02 0.0000000000000000e+00  2.7767711372151039e-05 -1.1024904222634215e-02 0.0000000000000000e+00  1.3973304573388195e-06 -1.0566754856615764e-02 0.0000000000000000e+00  5.8290748103668666e-06 -7.5046660109551596e-03 0.0000000000000000e+00  0.0000000000000000e+00 0.0000000000000000e+00 0.0000000000000000e+00  2.5079931085473144e-05 -1.0521490851442382e-02 0.0000000000000000e+00  3.7484307725662161e-05 -1.1076350193421703e-02 0.0000000000000000e+00  2.6990615037349992e-05 -1.0579576781846810e-02 0.0000000000000000e+00  2.7212584003330365e-05 -1.1137341399807812e-02 0.0000000000000000e+00  1.8569359221888144e-05 -7.5339193645744731e-03 0.0000000000000000e+00  0.0000000000000000e+00 0.0000000000000000e+00 0.0000000000000000e+00  2.0556423072391300e-05 -1.0445804191317284e-02 0.0000000000000000e+00  2.9668771810631375e-05 -1.1002713025824720e-02 0.0000000000000000e+00  3.6231545289566910e-05 -1.0525674826285362e-02 0.0000000000000000e+00  3.1115265135308812e-05 -1.1062033640242294e-02 0.0000000000000000e+00  2.1938534148387853e-05 -7.4847378388861133e-03 0.0000000000000000e+00  0.0000000000000000e+00 0.0000000000000000e+00 0.0000000000000000e+00  2.2690327301262429e-05 -1.0485319271938656e-02 0.0000000000000000e+00  2.4017759808276613e-05 -1.1036011071925523e-02 0.0000000000000000e+00  -1.7438002031882915e-06 -1.0575711645963151e-02 0.0000000000000000e+00  1.3257750571591145e-05 -1.1098834360136393e-02 0.0000000000000000e+00  5.0813424626822995e-06 -7.5423053376240494e-03 0.0000000000000000e+00  0.0000000000000000e+00 0.0000000000000000e+00 0.0000000000000000e+00  3.3698545706403278e-05 -1.0509504257646332e-02 0.0000000000000000e+00  4.6395727424241494e-05 -1.1046599410182836e-02 0.0000000000000000e+00  3.3668140768190090e-05 -1.0624284611177197e-02 0.0000000000000000e+00  3.2308797317590717e-05 -1.1114150421066811e-02 0.0000000000000000e+00  2.8284224136199051e-05 -7.4324446640982754e-03 0.0000000000000000e+00  0.0000000000000000e+00 0.0000000000000000e+00 0.0000000000000000e+00  2.4370985221637084e-05 -1.0649080968460999e-02 0.0000000000000000e+00  3.2182583809511759e-05 -1.1063739384262021e-02 0.0000000000000000e+00  3.9845797496207414e-05 -1.0263498129998917e-02 0.0000000000000000e+00  2.4551025930797829e-06 -1.0686139891051218e-02 0.0000000000000000e+00  5.3311309638256185e-06 -1.1099470380268853e-02 0.0000000000000000e+00  -2.4895414571012944e-05 -1.0301937846240970e-02 0.0000000000000000e+00  2.5945989573457092e-05 -1.1061873867703596e-02 0.0000000000000000e+00  -3.9757852933990567e-06 -7.1432836916842102e-03 0.0000000000000000e+00  1.2873437105518373e-05 -1.0828849626368481e-02 0.0000000000000000e+00  2.2574425157399684e-05 -1.1135492978538945e-02 0.0000000000000000e+00  9.8107393284068192e-06 -1.0387890664554006e-02 0.0000000000000000e+00  2.4122529815055862e-05 -1.0785691620617877e-02 0.0000000000000000e+00  2.4881652940909946e-05 -1.1126951286762972e-02 0.0000000000000000e+00  3.0385011963101426e-05 -1.0387757189010208e-02 0.0000000000000000e+00  2.6377635234528141e-05 -1.1157281251212799e-02 0.0000000000000000e+00  3.0833166634659841e-05 -1.1144095131185524e-02 0.0000000000000000e+00  2.7666944387145995e-05 -1.1157458439460843e-02 0.0000000000000000e+00  2.7121946066028096e-05 -1.1159201747737124e-02 0.0000000000000000e+00  2.5076660619251897e-05 -1.1148314727638529e-02 0.0000000000000000e+00  2.6110142725684047e-05 -1.1100652503431774e-02 0.0000000000000000e+00  2.3212305226510872e-05 -1.1086099949818493e-02 0.0000000000000000e+00  2.7897100294696651e-05 -1.1109654865118990e-02 0.0000000000000000e+00  2.8277734029639104e-05 -1.1110745900613166e-02 0.0000000000000000e+00  2.8591130803533252e-05 -1.1094924032527287e-02 0.0000000000000000e+00  1.9755579654215601e-05 -1.1146821784192634e-02 0.0000000000000000e+00  2.4075963024455844e-05 -1.1132734131681381e-02 0.0000000000000000e+00  1.8189890663750253e-05 -1.1146715870347504e-02 0.0000000000000000e+00  1.9135081583321196e-05 -1.1149886381415782e-02 0.0000000000000000e+00  1.6370898222756174e-05 -1.1140476807442574e-02 0.0000000000000000e+00  2.2200270695114033e-05 -1.1182824906563527e-02 0.0000000000000000e+00  2.5332826055302327e-05 -1.1171903737784948e-02 0.0000000000000000e+00  2.2348774281213777e-05 -1.1182404854587324e-02 0.0000000000000000e+00  2.2650726706499635e-05 -1.1184034512498515e-02 0.0000000000000000e+00  1.9378783493438124e-05 -1.1167765286228197e-02 0.0000000000000000e+00  2.3889316590691557e-05 -1.0730616763542363e-02 0.0000000000000000e+00  3.2230471703120284e-05 -1.1146033357953640e-02 0.0000000000000000e+00  4.0069756692354099e-05 -1.0346541616598452e-02 0.0000000000000000e+00  1.4155030724089802e-05 -1.1106308785110165e-02 0.0000000000000000e+00  9.6257086912048620e-06 -7.1778582243190074e-03 0.0000000000000000e+00  2.2422227513960254e-05 -1.0752032967134525e-02 0.0000000000000000e+00  3.1250158723040639e-05 -1.1165592337420012e-02 0.0000000000000000e+00  3.9766300999899977e-05 -1.0365801355351844e-02 0.0000000000000000e+00  2.0129316100700973e-05 -1.0843809046586900e-02 0.0000000000000000e+00  2.5224577978874441e-05 -1.1145900785012552e-02 0.0000000000000000e+00  1.5087109661783707e-05 -7.2795820492616292e-03 0.0000000000000000e+00  1.1398654320463751e-05 -1.1127477416552355e-02 0.0000000000000000e+00  8.8153296250299734e-06 -7.1959664882068081e-03 0.0000000000000000e+00  1.4974323978107916e-05 -1.1024112401537603e-02 0.0000000000000000e+00  1.0203975758885892e-05 -7.1044081942785026e-03 0.0000000000000000e+00  -6.8968613412225582e-06 -1.0734486532061946e-02 0.0000000000000000e+00  6.5178467807980189e-06 -1.1098378568492443e-02 0.0000000000000000e+00  -2.4427179933177158e-05 -1.0307870698688319e-02 0.0000000000000000e+00  1.8266943893555755e-05 -1.1180313076375585e-02 0.0000000000000000e+00  2.1894236976985006e-05 -1.1185372242020989e-02 0.0000000000000000e+00  1.8760172553659214e-05 -1.1183451950790707e-02 0.0000000000000000e+00  2.8332386473427228e-05 -1.1113505795688384e-02 0.0000000000000000e+00  2.9659499732756090e-05 -1.1114905839397608e-02 0.0000000000000000e+00  2.7663347538626325e-05 -1.1114007281051039e-02 0.0000000000000000e+00  1.5182950569530356e-05 -1.1149368953405979e-02 0.0000000000000000e+00  1.3814893748910827e-05 -1.1149525759569985e-02 0.0000000000000000e+00  1.6695427023277607e-05 -1.1150920687523835e-02 0.0000000000000000e+00  2.3964165195814459e-05 -1.1157072722884680e-02 0.0000000000000000e+00  2.6831697351470963e-05 -1.1158771067795956e-02 0.0000000000000000e+00  2.5286524583354567e-05 -1.1158798429839249e-02 0.0000000000000000e+00  2.3009143976321105e-10 -1.0780393645949444e-02 0.0000000000000000e+00  1.2047121968307228e-05 -1.1117224634473509e-02 0.0000000000000000e+00  -1.6496759310539194e-05 -1.0364165678369423e-02 0.0000000000000000e+00  2.1870791956290134e-05 -1.1099613764218006e-02 0.0000000000000000e+00  2.4047410683854832e-05 -1.1089355607842617e-02 0.0000000000000000e+00  2.0903849827366599e-05 -1.1140883330405776e-02 0.0000000000000000e+00  2.8617454948921245e-05 -1.0823076683844796e-02 0.0000000000000000e+00  2.2385603225345065e-05 -1.1052806137227311e-02 0.0000000000000000e+00  2.6472957374475727e-05 -1.1103998704713940e-02 0.0000000000000000e+00  1.9583693236970699e-05 -1.1087311801900850e-02 0.0000000000000000e+00  1.7738931670684074e-05 -1.1073154106971107e-02 0.0000000000000000e+00  1.7392986560531587e-05 -1.1127405425629075e-02