<?xml version="1.0"?>
<VTKFile type="UnstructuredGrid"  version="0.1"  >
<UnstructuredGrid>
<Piece  NumberOfPoints="2690" NumberOfCells="4864">
<Points>
<DataArray  type="Float64"  NumberOfComponents="3"  format="ascii">-5.073703139511139 22.01611927272945 0  -5.663777066593434 21.27876646437965 0  -5.072253034521685 21.51743772277718 0  -5.070528967575199 21.01619443052235 0  -5.665237973576648 21.779063840663 0  -6.256759483506815 21.53940903409433 0  -9 21.99999999996945 0  -8.407636944715913 21.26586844262031 0  -9 21.49999999997139 0  -9 20.99999999997333 0  -8.407896167287104 21.76584970082877 0  -7.815549022619969 21.53165691655421 0  -9 32.9999999999446 0  -8.413305437931275 32.2658157094769 0  -9 32.49999999994358 0  -9 31.99999999994255 0  -8.413564336126955 32.7658207421687 0  -7.826883759422005 32.53160285473006 0  -5.111306650489034 33.01741902017151 0  -5.614594745376305 32.31359527688618 0  -5.10979541846383 32.51973596459691 0  -5.107952922865136 32.01685424652312 0  -5.616107786383354 32.81404299849363 0  -6.120893722846732 32.60816616839894 0  -5.184290225675102 54.01659290054059 0  -5.761720001780433 54.75332073229442 0  -5.760277052968436 54.25401548178569 0  -6.336033003798551 54.48900150278821 0  -5.185993500209046 54.51783320852857 0  -5.187482921996754 55.01676087477789 0  -9 54.99999999998974 0  -8.494459935861267 54.29895577805334 0  -9 54.49999999998872 0  -9 53.99999999998769 0  -8.494689141193184 54.79888594512853 0  -7.989196811426631 54.59779456205229 0  -9 39.99999999995897 0  -8.417703335997127 40.74076194486493 0  -8.417444336014366 40.24076569548495 0  -7.835136244530472 40.48148271160066 0  -9 40.49999999996 0  -9 40.99999999996102 0  -5.138835353394324 41.0153975682248 0  -5.693290664912678 40.28440131652533 0  -5.137336091029774 40.51790448241596 0  -5.135639164928931 40.01734236443422 0  -5.694753349469139 40.78414040105154 0  -6.250706250638516 40.55006007355904 0  -9 55.99999999999179 0  -8.449638463929897 56.74634533205865 0  -8.44941210380478 56.2463011111595 0  -7.899061141701993 56.49260168505818 0  -9 56.49999999999282 0  -9 56.99999999999384 0  -5.191269393639125 56.01583900813618 0  -5.74398844294176 56.7592271191895 0  -5.742568594094327 56.25915882255704 0  -6.293585478836909 56.50047405092533 0  -5.193078217803802 56.51836713152104 0  -5.19456335711812 57.01681373735941 0  -7.494493249165751 43.00913022176914 0  -6.677783576444134 43.12243464271261 0  -7.265205549911562 43.34801718425886 0  -7.036051141151003 43.68691638907317 0  -6.906934476787683 42.78344737184825 0  -6.319145272390847 42.55777048018565 0  -6.663866283657169 49.01725022421591 0  -7.476333422979256 48.90297632175662 0  -6.891790706697199 48.67824203980602 0  -7.11986937080838 48.33918124419762 0  -7.248269104173368 49.24195071609309 0  -7.832424010872917 49.46677454679462 0  -6.657583224442893 46.01620009651287 0  -7.472237757735499 45.90229618817143 0  -6.886147212152505 45.67700033836084 0  -7.114855423529001 45.33788421931222 0  -7.243538830313232 46.24139970773165 0  -7.829261241902118 46.46653879909373 0  -6.576527296613094 7.016762362459003 0  -7.419379259432541 6.902741555546432 0  -6.813028396419422 6.677745148490417 0  -7.049674494738211 6.338731684234815 0  -7.182742586460478 7.241752116052337 0  -7.788726326770009 7.466730135472193 0  -7.477035619805196 30.00902730462494 0  -6.650847191199164 30.12220451638186 0  -7.245091009072659 30.34766582162103 0  -7.013283956653995 30.68624780183285 0  -6.882656651400607 29.78351190981265 0  -6.288040347330903 29.55808719865671 0  -6.570584669200096 4.015956304582905 0  -7.415812239121881 4.118581954517472 0  -6.808876599471184 4.351873016391456 0  -7.047049531378848 4.68773743618634 0  -7.177647369270678 3.782685351721579 0  -7.784909552647727 3.549518638271039 0  -6.582622750608044 10.01690440241634 0  -7.423634340137498 10.11921595762572 0  -6.819758717090253 10.35260996289083 0  -7.056769574895278 10.68831641778442 0  -7.18661201861702 9.783526388972941 0  -7.790839576370821 9.550128003107359 0  -6.588734763288169 13.01705646486753 0  -7.427330717305463 12.90297831585409 0  -6.824032447399477 12.67804480363973 0  -7.0594742057305 12.33903829327674 0  -7.191892760591707 13.24200917235213 0  -7.794825435829392 13.46691472880232 0  -6.59488524973798 16.01731735764755 0  -7.431350991861345 15.90305534945109 0  -6.82957883351426 15.67832506579886 0  -7.064420528401726 15.33929052320771 0  -7.196521972156703 16.24202751600628 0  -7.797919493640737 16.46683521253955 0  -6.601210369364908 19.01551056243851 0  -7.435773186027922 19.11812525298848 0  -6.836583764008183 19.35093605398316 0  -7.071808247320312 19.68645968184065 0  -7.200535612514975 18.7825509321372 0  -7.800112542793207 18.54954669219523 0  -6.617877210113145 27.01493148957595 0  -7.446644479286658 27.11776296490429 0  -6.851593404085448 27.35068493639035 0  -7.08517768283624 27.6864619597925 0  -7.213057563773281 26.78189363363115 0  -7.808469570329833 26.54899175777222 0  -8.280793951587473 19.09847017994093 0  -8.040512258320517 18.82398286242121 0  -8.399912161280485 18.2748185607964 0  -8.64022198741357 18.54930606609408 0  -9 17.99999999998495 0  -8.285794737826754 27.09828780467993 0  -8.04718894289994 26.82364185242428 0  -8.404094955836792 26.27448088409235 0  -8.642727711890402 26.54914081523101 0  -9 25.99999999995395 0  -8.278780177237222 15.91123699730676 0  -8.038291916915735 16.18904529519473 0  -8.399100696311622 16.73338120419457 0  -8.63956083075305 16.45559203668928 0  -9 16.99999999998883 0  -5.813909867466768 30.11362872184317 0  -6.050913769296656 29.83583977030584 0  -5.693057562031501 29.29091477931196 0  -5.456039772826982 29.56946469207364 0  -5.097416718578078 29.01610923501808 0  -8.27692941312452 12.91122993368168 0  -8.035820563577687 13.18906895105685 0  -8.397549987317712 13.73346441131656 0  -8.638632519792241 13.45562279809136 0  -9 13.99999999999401 0  -8.275212901940032 10.09898134754967 0  -8.033081737713863 9.824555324716483 0  -8.39528150591677 9.275061386616372 0  -8.637440594541962 9.549487475552647 0  -9 8.99999999999857 0  -8.271628586928411 4.098681213618296 0  -8.028319124037022 3.824113331493622 0  -8.392343762951977 3.274735937381711 0  -8.635667991432376 3.549307178313758 0  -9 2.999999999998668 0  -8.273275619561533 6.911111467540315 0  -8.030944380325337 7.188917606820282 0  -8.39449981452108 7.733369828812571 0  -8.636804075149149 7.455565562608526 0  -9 7.999999999999485 0  -8.297578160652847 45.91090620925892 0  -8.063362377032455 46.18870355317365 0  -8.414770336607033 46.73329911060207 0  -8.648958461265899 46.45550345752422 0  -9 46.99999999997333 0  -8.299462526175494 48.91119148274342 0  -8.065883644991169 49.18899227090058 0  -8.416356488748319 49.73334926389682 0  -8.649906605596348 49.455572070053 0  -9 49.99999999997949 0  -5.85047211545811 43.11382708258558 0  -6.084746074652037 42.83579469871853 0  -5.730989460962196 42.2903746414001 0  -5.496708194883695 42.56925797543938 0  -5.142147178882381 42.01544736902831 0  -5.79204265466481 23.9362384355581 0  -6.036482962441819 24.20222958135678 0  -5.682393409760048 24.74596263904262 0  -6.280800527130468 24.46827500417963 0  -5.438049983885742 24.48073551324489 0  -5.084050525472372 25.01600538054107 0  -8.306048062255604 52.08819163010584 0  -8.068075484830333 51.82210129212082 0  -8.414842944460343 51.27807350809237 0  -7.8299844961042 51.55605677153108 0  -8.652848675745235 51.5441629038826 0  -9 50.99999999998153 0  -5.831755610680534 38.10337642759932 0  -6.071784088274114 37.83379085355803 0  -5.718749227603269 37.2936601684438 0  -6.311932408580127 37.56425647090267 0  -5.478704325449085 37.56416759547673 0  -5.124846693305726 37.01472878288228 0  -5.822835493976974 34.93608388847884 0  -6.06494819162507 35.20195908140737 0  -5.714291653385985 35.7454893812713 0  -6.306938501850722 35.46788560749481 0  -5.472265167534875 35.48049397432452 0  -5.121725067109168 36.01525638095595 0  -7.931675301154733 50.50767208684383 0  -7.880803851509601 51.03188497883056 0  -8.46596035107736 50.75379338677772 0  -6.205448662690778 36.51591346291008 0  -6.258708434361508 37.03998500958772 0  -5.665232127194869 36.76817213143629 0  -6.25617035988145 35.99179195639181 0  -5.663753002753293 36.26798716867323 0  -6.040971645626842 25.27746541138685 0  -6.160851885480449 24.87290398682804 0  -5.56263878820868 25.14968227159145 0  -8.048564905687886 25.75160843275027 0  -7.92847570516728 26.15029951437715 0  -8.524334092680066 25.87580691171956 0  -7.002131116250761 34.38766183027285 0  -6.654365963435418 34.9278675759284 0  -6.904341788439241 35.25082867144474 0  -7.252128221789981 34.71075738691363 0  -7.501980281422792 35.03382410036726 0  -7.144680393052012 52.6358294206128 0  -7.487157644660694 52.09603007593714 0  -7.241050634509061 51.7733193824602 0  -6.898590530926932 52.31316899339881 0  -6.652350277140197 51.99055464020638 0  -7.009660568513435 38.63575441571805 0  -6.660965409405504 38.10009877041409 0  -6.909029883735199 37.77398356291634 0  -7.257708584381724 38.309782466736 0  -7.50590036985374 37.98377498775602 0  -6.982780197140813 23.38774777595054 0  -6.631624196814789 23.92806944181208 0  -6.884006960928091 24.25110411002693 0  -7.235186418411435 23.71089602773213 0  -7.487449121051099 24.03399902629861 0  -7.900192117966128 17.50755604632427 0  -7.850127176905562 18.02857558452069 0  -8.450216611263206 17.75373419633828 0  -7.849077935653583 16.98720444242648 0  -8.449975689138885 17.25380234570768 0  -7.891743975964906 8.507729351491271 0  -7.84127018178891 9.028930227228157 0  -8.445986978919057 8.753866369202775 0  -7.93363294893063 2.422312827970236 0  -7.859225104277733 2.985895384874768 0  -8.466924773283976 2.711178980502144 0  -7.840257874821111 7.987233969375993 0  -8.445754776994733 8.253859245137306 0  -7.882073025060645 49.98723288985458 0  -8.465713978936698 50.25386144043883 0  -6.131479654652312 41.60872424745921 0  -6.225352906558737 42.0833185440281 0
[...]
<PointData  Vectors="f_27"> 
<DataArray  type="Float64"  Name="f_27"  NumberOfComponents="3" format="ascii">0.0000000000000000e+00 0.0000000000000000e+00 0.0000000000000000e+00  8.3010262254076816e-06 -1.1883473900782879e-02 0.0000000000000000e+00  0.0000000000000000e+00 0.0000000000000000e+00 0.0000000000000000e+00  0.0000000000000000e+00 0.0000000000000000e+00 0.0000000000000000e+00  -6.5132962395383220e-06 -1.6658830214287899e-02 0.0000000000000000e+00  1.5425303166908368e-05 -1.7135458449001939e-02 0.0000000000000000e+00  0.0000000000000000e+00 0.0000000000000000e+00 0.0000000000000000e+00  3.8467059868830118e-05 -1.2098128291400518e-02 0.0000000000000000e+00  0.0000000000000000e+00 0.0000000000000000e+00 0.0000000000000000e+00  0.0000000000000000e+00 0.0000000000000000e+00 0.0000000000000000e+00  8.3379587987642342e-05 -1.6611048566566054e-02 0.0000000000000000e+00  6.2856226041063264e-05 -1.7203715530582794e-02 0.0000000000000000e+00  0.0000000000000000e+00 0.0000000000000000e+00 0.0000000000000000e+00  3.8680115496911855e-05 -1.1784611755117209e-02 0.0000000000000000e+00  0.0000000000000000e+00 0.0000000000000000e+00 0.0000000000000000e+00  0.0000000000000000e+00 0.0000000000000000e+00 0.0000000000000000e+00  8.3674117591387012e-05 -1.6499479354587954e-02 0.0000000000000000e+00  6.6187763360628623e-05 -1.7093650846558974e-02 0.0000000000000000e+00  0.0000000000000000e+00 0.0000000000000000e+00 0.0000000000000000e+00  1.5547193410883418e-05 -1.2386124273325317e-02 0.0000000000000000e+00  0.0000000000000000e+00 0.0000000000000000e+00 0.0000000000000000e+00  0.0000000000000000e+00 0.0000000000000000e+00 0.0000000000000000e+00  1.9956977170417367e-05 -1.6580159539785425e-02 0.0000000000000000e+00  3.3081818362428683e-05 -1.7146635659630961e-02 0.0000000000000000e+00  0.0000000000000000e+00 0.0000000000000000e+00 0.0000000000000000e+00  2.8281802942982132e-05 -1.2164134713548293e-02 0.0000000000000000e+00  6.8200763714374813e-05 -1.6311499078751859e-02 0.0000000000000000e+00  5.4406626563105599e-05 -1.6881134309509500e-02 0.0000000000000000e+00  0.0000000000000000e+00 0.0000000000000000e+00 0.0000000000000000e+00  0.0000000000000000e+00 0.0000000000000000e+00 0.0000000000000000e+00  0.0000000000000000e+00 0.0000000000000000e+00 0.0000000000000000e+00  3.5659597727250086e-05 -1.2143280406313368e-02 0.0000000000000000e+00  0.0000000000000000e+00 0.0000000000000000e+00 0.0000000000000000e+00  0.0000000000000000e+00 0.0000000000000000e+00 0.0000000000000000e+00  5.3187408831692747e-05 -1.6478922622900197e-02 0.0000000000000000e+00  5.2781995509812634e-05 -1.6933036843509563e-02 0.0000000000000000e+00  0.0000000000000000e+00 0.0000000000000000e+00 0.0000000000000000e+00  3.1979181080861541e-05 -1.1691266111634976e-02 0.0000000000000000e+00  1.9294543102245988e-05 -1.6437412095184213e-02 0.0000000000000000e+00  3.6596122565288708e-05 -1.7019808823485506e-02 0.0000000000000000e+00  0.0000000000000000e+00 0.0000000000000000e+00 0.0000000000000000e+00  0.0000000000000000e+00 0.0000000000000000e+00 0.0000000000000000e+00  0.0000000000000000e+00 0.0000000000000000e+00 0.0000000000000000e+00  2.8519839246316813e-05 -1.1901003990557857e-02 0.0000000000000000e+00  0.0000000000000000e+00 0.0000000000000000e+00 0.0000000000000000e+00  0.0000000000000000e+00 0.0000000000000000e+00 0.0000000000000000e+00  1.8800865925632074e-05 -1.6632104378059995e-02 0.0000000000000000e+00  3.3445589652176576e-05 -1.7058195673697710e-02 0.0000000000000000e+00  0.0000000000000000e+00 0.0000000000000000e+00 0.0000000000000000e+00  5.1523159504438128e-05 -1.2602802241113806e-02 0.0000000000000000e+00  3.4085610653443477e-05 -1.6368508140017963e-02 0.0000000000000000e+00  5.4909590810709430e-05 -1.6903824802619025e-02 0.0000000000000000e+00  0.0000000000000000e+00 0.0000000000000000e+00 0.0000000000000000e+00  0.0000000000000000e+00 0.0000000000000000e+00 0.0000000000000000e+00  0.0000000000000000e+00 0.0000000000000000e+00 0.0000000000000000e+00  2.0539994543030905e-05 -1.2611956828138053e-02 0.0000000000000000e+00  5.3174339198989246e-05 -1.6368138977781267e-02 0.0000000000000000e+00  4.0203309603921535e-05 -1.6896470371237624e-02 0.0000000000000000e+00  0.0000000000000000e+00 0.0000000000000000e+00 0.0000000000000000e+00  0.0000000000000000e+00 0.0000000000000000e+00 0.0000000000000000e+00  7.3682789547292038e-05 -1.7493480280054798e-02 0.0000000000000000e+00  8.2209156637747693e-05 -1.7508170646039326e-02 0.0000000000000000e+00  7.2753816628380640e-05 -1.7507811042017110e-02 0.0000000000000000e+00  6.9075217297751582e-05 -1.7507282297304413e-02 0.0000000000000000e+00  7.7344308390701332e-05 -1.7506842574272270e-02 0.0000000000000000e+00  7.1732662822111308e-05 -1.7448150639932967e-02 0.0000000000000000e+00  9.5011690531692227e-05 -1.7422289054908200e-02 0.0000000000000000e+00  8.8378275751703806e-05 -1.7418469146572517e-02 0.0000000000000000e+00  9.5907500141938324e-05 -1.7441995535719089e-02 0.0000000000000000e+00  9.3577925712412421e-05 -1.7435967013112244e-02 0.0000000000000000e+00  8.7187448800821421e-05 -1.7433945359106723e-02 0.0000000000000000e+00  7.5161131479054526e-05 -1.7368431275218824e-02 0.0000000000000000e+00  8.0467932306009209e-05 -1.7459374439736462e-02 0.0000000000000000e+00  7.0797068413143552e-05 -1.7467716788805605e-02 0.0000000000000000e+00  7.2956020774906004e-05 -1.7476025968064975e-02 0.0000000000000000e+00  6.4957026792013386e-05 -1.7482384835291988e-02 0.0000000000000000e+00  7.6168498047082586e-05 -1.7464372653357148e-02 0.0000000000000000e+00  6.7163958627438559e-05 -1.7392808268547534e-02 0.0000000000000000e+00  7.8473290039803907e-05 -1.7804026146052823e-02 0.0000000000000000e+00  7.0330167200168545e-05 -1.7817315493478973e-02 0.0000000000000000e+00  7.4645855778227322e-05 -1.7823459017921154e-02 0.0000000000000000e+00  7.4902005841661107e-05 -1.7827928042749418e-02 0.0000000000000000e+00  7.1713177150119507e-05 -1.7816936753850567e-02 0.0000000000000000e+00  6.1471218067180464e-05 -1.7753724968926264e-02 0.0000000000000000e+00  6.7390082705305837e-05 -1.7603531639796541e-02 0.0000000000000000e+00  8.2557434515077038e-05 -1.7594777391723566e-02 0.0000000000000000e+00  6.8479926578566132e-05 -1.7621716644152564e-02 0.0000000000000000e+00  6.6499976224784795e-05 -1.7607816293679773e-02 0.0000000000000000e+00  7.5537979113767675e-05 -1.7612053245104054e-02 0.0000000000000000e+00  7.4537922195755572e-05 -1.7543724684666445e-02 0.0000000000000000e+00  8.7358111520889067e-05 -1.7844530670867657e-02 0.0000000000000000e+00  7.9820785177303334e-05 -1.7841013595522117e-02 0.0000000000000000e+00  8.3809978125492802e-05 -1.7851433742398129e-02 0.0000000000000000e+00  8.0178751128104543e-05 -1.7846679845807487e-02 0.0000000000000000e+00  8.1345116259598670e-05 -1.7845677776338043e-02 0.0000000000000000e+00  8.1291805782279040e-05 -1.7781969231351613e-02 0.0000000000000000e+00  8.6379345364239222e-05 -1.7787876438871426e-02 0.0000000000000000e+00  8.0511748659200310e-05 -1.7790034178367511e-02 0.0000000000000000e+00  8.1010003428605000e-05 -1.7796130162916403e-02 0.0000000000000000e+00  7.8458365062318320e-05 -1.7792438462868775e-02 0.0000000000000000e+00  8.5966507153075242e-05 -1.7795325754146916e-02 0.0000000000000000e+00  8.9956984435947776e-05 -1.7726016493583987e-02 0.0000000000000000e+00  7.7434898410361029e-05 -1.7751208635837012e-02 0.0000000000000000e+00  7.1579862003163266e-05 -1.7765374451329061e-02 0.0000000000000000e+00  7.4556381541645862e-05 -1.7771016927162018e-02 0.0000000000000000e+00  7.5585578375952806e-05 -1.7775652549706287e-02 0.0000000000000000e+00  7.1790478742156827e-05 -1.7762879472235336e-02 0.0000000000000000e+00  6.3301250174080219e-05 -1.7695180565033861e-02 0.0000000000000000e+00  9.0309289719630738e-05 -1.7727788543093009e-02 0.0000000000000000e+00  8.3659967374601220e-05 -1.7723215693675180e-02 0.0000000000000000e+00  9.0979830513015657e-05 -1.7746417846903031e-02 0.0000000000000000e+00  8.8516904935488039e-05 -1.7739638388651679e-02 0.0000000000000000e+00  8.2355037372309288e-05 -1.7739851153771670e-02 0.0000000000000000e+00  7.0602278339876280e-05 -1.7674463121575359e-02 0.0000000000000000e+00  1.0292216591985533e-04 -1.7692361831546335e-02 0.0000000000000000e+00  8.2380654560047976e-05 -1.7697096948942309e-02 0.0000000000000000e+00  9.4321143084960350e-05 -1.7716130516987970e-02 0.0000000000000000e+00  7.9130995456821462e-05 -1.7702197193709465e-02 0.0000000000000000e+00  9.2668885819936718e-05 -1.7715483410112722e-02 0.0000000000000000e+00  9.1944545809123795e-05 -1.7648949735718962e-02 0.0000000000000000e+00  9.6766162999426160e-05 -1.7629745310393970e-02 0.0000000000000000e+00  8.2198897723728188e-05 -1.7643817939135033e-02 0.0000000000000000e+00  9.1737954986790432e-05 -1.7647752717316764e-02 0.0000000000000000e+00  8.0165846546299493e-05 -1.7638720539660629e-02 0.0000000000000000e+00  8.4327528113699616e-05 -1.7645628305639850e-02 0.0000000000000000e+00  8.0638252462235236e-05 -1.7585482330970625e-02 0.0000000000000000e+00  6.0799741658043117e-05 -1.6593231468075616e-02 0.0000000000000000e+00  8.1257333146276216e-05 -1.7542182985350978e-02 0.0000000000000000e+00  9.3412657906801459e-05 -1.6794001571739676e-02 0.0000000000000000e+00  5.9066525198393767e-05 -1.1923985558766524e-02 0.0000000000000000e+00  0.0000000000000000e+00 0.0000000000000000e+00 0.0000000000000000e+00  6.3181448771865972e-05 -1.6529327018480068e-02 0.0000000000000000e+00  7.3039730919162356e-05 -1.7468393465561272e-02 0.0000000000000000e+00  7.7171584388166476e-05 -1.6726570628291231e-02 0.0000000000000000e+00  5.1494958374198196e-05 -1.1841170988602922e-02 0.0000000000000000e+00  0.0000000000000000e+00 0.0000000000000000e+00 0.0000000000000000e+00  6.7266521051891008e-05 -1.6632319513213870e-02 0.0000000000000000e+00  6.1436112001329190e-05 -1.7556305240655972e-02 0.0000000000000000e+00  4.6907026273512252e-05 -1.6912838886094229e-02 0.0000000000000000e+00  2.6822402906789365e-05 -1.1821205553766935e-02 0.0000000000000000e+00  0.0000000000000000e+00 0.0000000000000000e+00 0.0000000000000000e+00  8.3946531655435265e-05 -1.6488465838248874e-02 0.0000000000000000e+00  1.1464172172996803e-04 -1.7424073329270619e-02 0.0000000000000000e+00  4.9724486770654201e-05 -1.6738483468558416e-02 0.0000000000000000e+00  3.6714425526267490e-05 -1.1862070880848462e-02 0.0000000000000000e+00  0.0000000000000000e+00 0.0000000000000000e+00 0.0000000000000000e+00  6.5904926547540960e-05 -1.6646988731120724e-02 0.0000000000000000e+00  6.0910821495353538e-05 -1.7580758413365385e-02 0.0000000000000000e+00  4.8667707650176060e-05 -1.6837849802967743e-02 0.0000000000000000e+00  3.6447770680305745e-05 -1.1954596828283046e-02 0.0000000000000000e+00  0.0000000000000000e+00 0.0000000000000000e+00 0.0000000000000000e+00  7.0179068254802560e-05 -1.6668843115345191e-02 0.0000000000000000e+00  8.3901550453796160e-05 -1.7610875613091895e-02 0.0000000000000000e+00  9.4219702241577931e-05 -1.6859932827826350e-02 0.0000000000000000e+00  6.2472340297135232e-05 -1.1993665492608573e-02 0.0000000000000000e+00  0.0000000000000000e+00 0.0000000000000000e+00 0.0000000000000000e+00  7.0018298800484199e-05 -1.6738772326997210e-02 0.0000000000000000e+00  7.9556924085322526e-05 -1.7654216961349122e-02 0.0000000000000000e+00  8.6912185938425922e-05 -1.7014885531747227e-02 0.0000000000000000e+00  6.5237742562207130e-05 -1.1927516337898490e-02 0.0000000000000000e+00  0.0000000000000000e+00 0.0000000000000000e+00 0.0000000000000000e+00  5.7717147722082101e-05 -1.6719005052240294e-02 0.0000000000000000e+00  5.2918588663596767e-05 -1.7631067977459204e-02 0.0000000000000000e+00  4.0947178710294961e-05 -1.6982503368873903e-02 0.0000000000000000e+00  2.2627891013496910e-05 -1.1897714507504443e-02 0.0000000000000000e+00  0.0000000000000000e+00 0.0000000000000000e+00 0.0000000000000000e+00  6.7754051433609449e-05 -1.6332963112827920e-02 0.0000000000000000e+00  6.3633046487995316e-05 -1.7273153536332794e-02 0.0000000000000000e+00  5.2606020775827467e-05 -1.6544234448953522e-02 0.0000000000000000e+00  3.7894931675661397e-05 -1.1647563531528538e-02 0.0000000000000000e+00  0.0000000000000000e+00 0.0000000000000000e+00 0.0000000000000000e+00  7.0797623340999484e-05 -1.6319006080722207e-02 0.0000000000000000e+00  6.5986699990020064e-05 -1.7247254699766217e-02 0.0000000000000000e+00  5.1951829799898321e-05 -1.6615805937832788e-02 0.0000000000000000e+00  3.0405590300410973e-05 -1.1516447864460834e-02 0.0000000000000000e+00  0.0000000000000000e+00 0.0000000000000000e+00 0.0000000000000000e+00  8.1111832539293232e-05 -1.6387787711963999e-02 0.0000000000000000e+00  1.1176854691987754e-04 -1.7325602025962561e-02 0.0000000000000000e+00  3.9319860846560709e-05 -1.6640285511309964e-02 0.0000000000000000e+00  3.4806144170133424e-05 -1.1758753272183781e-02 0.0000000000000000e+00  0.0000000000000000e+00 0.0000000000000000e+00 0.0000000000000000e+00  8.8080187360084082e-05 -1.6619397709899300e-02 0.0000000000000000e+00  1.2075729825003568e-04 -1.7507755616603619e-02 0.0000000000000000e+00  7.4605902274307455e-05 -1.6695169437301025e-02 0.0000000000000000e+00  8.6960893057184011e-05 -1.7603445933640480e-02 0.0000000000000000e+00  5.3539133088964102e-05 -1.1837260417406943e-02 0.0000000000000000e+00  0.0000000000000000e+00 0.0000000000000000e+00 0.0000000000000000e+00  6.8892699118937835e-05 -1.6350864213746489e-02 0.0000000000000000e+00  8.5202996755597224e-05 -1.7238706012807772e-02 0.0000000000000000e+00  9.4213400103654784e-05 -1.6494787264526880e-02 0.0000000000000000e+00  9.0341359471248349e-05 -1.7333415939393370e-02 0.0000000000000000e+00  5.9220852354782314e-05 -1.1653261932211579e-02 0.0000000000000000e+00  0.0000000000000000e+00 0.0000000000000000e+00 0.0000000000000000e+00  8.5193653594190443e-05 -1.6496370246836659e-02 0.0000000000000000e+00  1.0475182290749936e-04 -1.7364588725459811e-02 0.0000000000000000e+00  2.8934897027092150e-05 -1.6675224845803374e-02 0.0000000000000000e+00  6.7146507035003173e-05 -1.7467177472711655e-02 0.0000000000000000e+00  3.5555844278990735e-05 -1.1850962269823078e-02 0.0000000000000000e+00  0.0000000000000000e+00 0.0000000000000000e+00 0.0000000000000000e+00  1.0221204506603663e-04 -1.6539533023898871e-02 0.0000000000000000e+00  1.3658789780647958e-04 -1.7398190322212168e-02 0.0000000000000000e+00  8.2791108397183713e-05 -1.6713103193442679e-02 0.0000000000000000e+00  9.5240497758976699e-05 -1.7507003919735351e-02 0.0000000000000000e+00  6.7458312077675703e-05 -1.1611858003215375e-02 0.0000000000000000e+00  0.0000000000000000e+00 0.0000000000000000e+00 0.0000000000000000e+00  7.8696161329284154e-05 -1.6682345064035171e-02 0.0000000000000000e+00  9.2062686954894364e-05 -1.7339659554122620e-02 0.0000000000000000e+00  9.8482408140734029e-05 -1.6066678884873908e-02 0.0000000000000000e+00  1.5357549032719975e-05 -1.6818868955367185e-02 0.0000000000000000e+00  4.1148706252694490e-05 -1.7472663716523302e-02 0.0000000000000000e+00  -4.3308287700326798e-05 -1.6209123974946615e-02 0.0000000000000000e+00  7.2609794102971079e-05 -1.7415765794030477e-02 0.0000000000000000e+00  -2.0604766368154590e-05 -1.1207334655498658e-02 0.0000000000000000e+00  3.4135359189849973e-05 -1.7104632973951966e-02 0.0000000000000000e+00  6.8331079156784609e-05 -1.7594000368344569e-02 0.0000000000000000e+00  8.9160078882728874e-06 -1.6413213497945386e-02 0.0000000000000000e+00  7.1326561799496722e-05 -1.7030630618429642e-02 0.0000000000000000e+00  7.5563745711211810e-05 -1.7573734384196488e-02 0.0000000000000000e+00  7.9057701726656382e-05 -1.6394728260098915e-02 0.0000000000000000e+00  8.4563173061317457e-05 -1.7579260408952618e-02 0.0000000000000000e+00  9.9638295243304953e-05 -1.7557766355177661e-02 0.0000000000000000e+00  8.6926089936703295e-05 -1.7578462144111323e-02 0.0000000000000000e+00  8.6309853217521635e-05 -1.7581121520200364e-02 0.0000000000000000e+00  7.8890249649132311e-05 -1.7562351779744755e-02 0.0000000000000000e+00  8.5875542866590805e-05 -1.7382461639903590e-02 0.0000000000000000e+00  7.8711603858389479e-05 -1.7366391112850717e-02 0.0000000000000000e+00  8.8799003972335754e-05 -1.7401942782407930e-02 0.0000000000000000e+00  9.1525528913545152e-05 -1.7399434063901403e-02 0.0000000000000000e+00  9.0967673101931843e-05 -1.7374404867578925e-02 0.0000000000000000e+00  7.4808135269666066e-05 -1.7539559882075634e-02 0.0000000000000000e+00  8.9816796322228124e-05 -1.7517882547335634e-02 0.0000000000000000e+00  7.2973184505105822e-05 -1.7540663564953502e-02 0.0000000000000000e+00  7.4510268245073889e-05 -1.7545932255332606e-02 0.0000000000000000e+00  6.5995377223666604e-05 -1.7532598820955200e-02 0.0000000000000000e+00  7.6663644016430131e-05 -1.7677800665370492e-02 0.0000000000000000e+00  9.0033768381044471e-05 -1.7661222539438904e-02 0.0000000000000000e+00  7.8327860623086628e-05 -1.7676999724275839e-02 0.0000000000000000e+00  7.8201173663404070e-05 -1.7678429943013763e-02 0.0000000000000000e+00  6.9293610699269206e-05 -1.7651372057848516e-02 0.0000000000000000e+00  7.6553056606758842e-05 -1.6990249286500368e-02 0.0000000000000000e+00  9.1722233788774392e-05 -1.7649901129311946e-02 0.0000000000000000e+00  9.8931478005684465e-05 -1.6378468477508162e-02 0.0000000000000000e+00  6.3681932472057592e-05 -1.7589762231216395e-02 0.0000000000000000e+00  4.0857313843520418e-05 -1.1349219291672544e-02 0.0000000000000000e+00  7.3254692589215539e-05 -1.7065261667261244e-02 0.0000000000000000e+00  8.9208945802295034e-05 -1.7722400134632086e-02 0.0000000000000000e+00  9.8343376668150599e-05 -1.6448244848897252e-02 0.0000000000000000e+00  6.9928188178665032e-05 -1.7227797098584231e-02 0.0000000000000000e+00  7.8267606617605650e-05 -1.7709001053619302e-02 0.0000000000000000e+00  4.7724577708979449e-05 -1.1559743223219536e-02 0.0000000000000000e+00  5.7513297648367436e-05 -1.7664470333933969e-02 0.0000000000000000e+00  3.8908786573191340e-05 -1.1413021082156116e-02 0.0000000000000000e+00  6.7619057121667467e-05 -1.7280614657817692e-02 0.0000000000000000e+00  4.3130150444003835e-05 -1.1082266994045888e-02 0.0000000000000000e+00  5.6510024678155991e-06 -1.6876035512912963e-02 0.0000000000000000e+00  5.0265998664147920e-05 -1.7452120267131669e-02 0.0000000000000000e+00  -3.0718678853130264e-05 -1.6195791989039920e-02 0.0000000000000000e+00  6.7259581964823704e-05 -1.7670568364198100e-02 0.0000000000000000e+00  7.4388915869317215e-05 -1.7680434681761944e-02 0.0000000000000000e+00  7.0062533973650962e-05 -1.7675911382191857e-02 0.0000000000000000e+00  8.9126123201000508e-05 -1.7412306626971654e-02 0.0000000000000000e+00  9.0814281593925235e-05 -1.7416543709997099e-02 0.0000000000000000e+00  8.8246054156230859e-05 -1.7409646016457479e-02 0.0000000000000000e+00  6.2354893017367918e-05 -1.7548161100915078e-02 0.0000000000000000e+00  6.1800616523294722e-05 -1.7547194810625808e-02 0.0000000000000000e+00  6.7117946655202552e-05 -1.7549888185055183e-02 0.0000000000000000e+00  7.5395622639629477e-05 -1.7574677859673839e-02 0.0000000000000000e+00  8.1053686888314658e-05 -1.7578081126610825e-02 0.0000000000000000e+00  7.9834677215711184e-05 -1.7578381984982686e-02 0.0000000000000000e+00  1.6184989005624748e-05 -1.7009978505375657e-02 0.0000000000000000e+00  5.5332036319595008e-05 -1.7542767948757736e-02 0.0000000000000000e+00  -2.7742777809084149e-05 -1.6340373023153318e-02 0.0000000000000000e+00  7.5570002545973167e-05 -1.7444246192168715e-02 0.0000000000000000e+00  8.9520419028275996e-05 -1.7430177177886783e-02 0.0000000000000000e+00  7.6543861339345946e-05 -1.7511851178958343e-02 0.0000000000000000e+00  9.0037856155849644e-05 -1.6975077280953748e-02 0.0000000000000000e+00  8.1988393120380407e-05 -1.7334840082632010e-02 0.0000000000000000e+00  9.1331588003585503e-05 -1.7418677631927705e-02 0.0000000000000000e+00  6.9512079154433450e-05 -1.7408340433557698e-02 0.0000000000000000e+00  6.9502485419667501e-05 -1.7380825474741020e-02 0.0000000000000000e+00  6.8248459176237060e-05 -1.7470797987279383e-02 0.000