<?xml version="1.0"?>
<VTKFile type="UnstructuredGrid"  version="0.1"  >
<UnstructuredGrid>
<Piece  NumberOfPoints="2690" NumberOfCells="4864">
<Points>
<DataArray  type="Float64"  NumberOfComponents="3"  format="ascii">-5.091124199237262 22.01990144721304 0  -5.678127374948255 21.28257681232962 0  -5.089344835860403 21.52152797710635 0  -5.087193612603638 21.01998160973589 0  -5.679947027074982 21.78294878784206 0  -6.26871577561443 21.54278763540691 0  -9 21.99999999996945 0  -8.410181893704422 21.26665890958458 0  -9 21.49999999997139 0  -9 20.99999999997333 0  -8.410504431027457 21.7666358758199 0  -7.820706935008967 21.5332189448997 0  -9 32.9999999999446 0  -8.41722078169134 32.26659342206973 0  -9 32.49999999994358 0  -9 31.99999999994255 0  -8.41754269575865 32.76659985468503 0  -7.83478117350502 32.53315153430493 0  -5.137805781926233 33.02149589477515 0  -5.637201968345585 32.31763288145876 0  -5.135957202424946 32.52436103321839 0  -5.133635931419624 32.02079838069692 0  -5.639091080491689 32.8181880278407 0  -6.140318289073664 32.61178726974369 0  -5.2287179890977 54.02045794225098 0  -5.799993530313492 54.75699968332486 0  -5.798193365566132 54.25785924645817 0  -6.367347140530843 54.49226115272616 0  -5.230870797412978 54.5220045854583 0  -5.232698738180799 55.02064620678545 0  -9 54.99999999998974 0  -8.500374477504858 54.29961897140612 0  -9 54.49999999998872 0  -9 53.99999999998769 0  -8.50066194117016 54.79953167995672 0  -8.001096921127862 54.59909194225169 0  -9 39.99999999995897 0  -8.422690382258525 40.7415252936138 0  -8.422368266281566 40.24153020691671 0  -7.845044797762733 40.48299958861553 0  -9 40.49999999996 0  -9 40.99999999996102 0  -5.172037059876833 41.01897694883273 0  -5.72125884836931 40.28827088869642 0  -5.170200453541226 40.52208453432817 0  -5.168069862663374 40.0213854024744 0  -5.723079423557798 40.78794944683897 0  -6.274129664926759 40.55342885521436 0  -9 55.99999999999179 0  -8.456387963371188 56.74704921417912 0  -8.456104482218619 56.24699371551078 0  -7.912505605253305 56.49398737769291 0  -9 56.49999999999282 0  -9 56.99999999999384 0  -5.237443992795883 56.01951379642973 0  -5.784023405916464 56.76292461128713 0  -5.782259161309314 56.26283898428647 0  -6.326686349008503 56.50368900243551 0  -5.23972995756194 56.52266379629911 0  -5.241553685157658 57.02071802263765 0  -7.508151037007634 43.01127617787387 0  -6.698917059270112 43.12579001919598 0  -7.281072356184163 43.35052839806614 0  -7.054157667169744 43.68979503872495 0  -6.925824149065733 42.7864131403026 0  -6.343215354449036 42.56155940784417 0  -6.688164562907342 49.02132259492428 0  -7.492141223098232 48.90560908218361 0  -6.913543414172227 48.68192155266386 0  -7.139118837165972 48.34245435122061 0  -7.266585634739586 49.2449691825501 0  -7.844695998648821 49.46876777296919 0  -6.680361017430649 46.02002202637324 0  -7.487053763300124 45.90476415114643 0  -6.906540932828835 45.68038056437148 0  -7.132901666821067 45.34084262422581 0  -7.260704046139157 46.24428572750988 0  -7.840760101615976 46.46847498524225 0  -6.57975804433713 7.020702992699277 0  -7.421448405398244 6.905306247117012 0  -6.815789688758945 6.681290571768452 0  -7.052003312601113 6.341882552591684 0  -7.185246056191777 7.244710162202063 0  -7.79044908602745 7.468703540311552 0  -7.486444401494172 30.01114965828454 0  -6.665423697725595 30.12550502755568 0  -7.256064509590198 30.35009343329249 0  -7.025855112438682 30.68896651493171 0  -6.895634165452285 29.78649401608562 0  -6.304531454885772 29.56195192428023 0  -6.572438137547972 4.019703786236887 0  -7.417054649779706 4.121027592627771 0  -6.810675395170836 4.355286730379479 0  -7.048769772777741 4.690805571705798 0  -7.178970045847499 3.785469640028519 0  -7.785747448238206 3.551363377180602 0  -6.587286916455286 10.02087510108317 0  -7.426703116814708 10.12181104641634 0  -6.82410169327416 10.35619760904183 0  -7.06076470206738 10.69152152255695 0  -7.190024940444449 9.786508594968543 0  -7.793058860033436 9.552116140255892 0  -6.594836991333941 13.02106724430973 0  -7.431268520954429 12.90559936998236 0  -6.829380863285158 12.68166171150026 0  -7.064105546929244 12.3422622807011 0  -7.196547060017682 13.24502837781458 0  -7.797981395735723 13.46893206979743 0  -6.602442196859665 16.02138903348002 0  -7.436242859298972 15.90569512928726 0  -6.836238999282338 15.68200774351045 0  -7.070222642778648 15.34257397928239 0  -7.202276296198629 16.24505175608509 0  -7.801813118270234 16.46883476084706 0  -6.610318011883519 19.01915986903088 0  -7.441748628979203 19.12046650872194 0  -6.844964744015412 19.35413390641241 0  -7.079423622833104 19.68922946310129 0  -7.207272146136302 18.78530758369525 0  -7.804542710019074 18.55140054856114 0  -6.63101747546274 27.01844552524425 0  -7.455251260872966 27.12002001476376 0  -6.863598471745572 27.35382541435561 0  -7.096017861635057 27.68923466223253 0  -7.222830767411743 26.78449619160135 0  -7.814929115947281 26.55071509360284 0  -8.283538157952371 19.09954482912568 0  -8.044114115922341 18.82544108149987 0  -8.402091511136625 18.2757562071808 0  -8.641550589040992 18.54986028967173 0  -9 17.99999999998495 0  -8.289750112957204 27.09931996392192 0  -8.052409873144889 26.82502012824452 0  -8.407291297195119 26.2753389103441 0  -8.644664769929376 26.54965612377777 0  -9 25.99999999995395 0  -8.281031387552785 15.91244529684187 0  -8.041350247309015 16.19065138347973 0  -8.401081521869706 16.73437257681374 0  -8.640727627276473 16.45619006255114 0  -9 16.99999999998883 0  -5.833691356106145 30.11827032113515 0  -6.069035512203179 29.84009005288764 0  -5.712976772068801 29.29565130638883 0  -5.477627635451192 29.57477279291932 0  -5.120523982115021 29.01990394433377 0  -8.278740663290806 12.91243606115784 0  -8.038290638674766 13.19067990090823 0  -8.399159993315816 13.73447474375762 0  -8.639577806220505 13.45622770542573 0  -9 13.99999999999401 0  -8.276620713807137 10.10017509629506 0  -8.034908127706132 9.826146400358541 0  -8.396358410426217 9.276054880255055 0  -8.638105770634484 9.550083615382821 0  -9 8.99999999999857 0  -8.272199733519859 4.099804162595658 0  -8.029034904740188 3.825600273769532 0  -8.392737019092646 3.275652842220691 0  -8.63592025304135 3.549860845981664 0  -9 2.999999999998668 0  -8.274228531197407 6.912289400466154 0  -8.032268731594435 7.19049253409738 0  -8.395393080798648 7.734357605216153 0  -8.637319743060583 7.456156832299579 0  -9 7.999999999999485 0  -8.304391600148069 45.91203950296147 0  -8.072504789386807 46.19023369188773 0  -8.420552929902284 46.73427447204659 0  -8.652405574009322 46.45608241023866 0  -9 46.99999999997333 0  -8.3067329155402 48.91239445401987 0  -8.075639811379874 49.19059269226808 0  -8.422528475241188 49.73433687023601 0  -8.653585505173217 49.45616782343476 0  -9 49.99999999997949 0  -5.879159932574685 43.11851637972458 0  -6.111110067902625 42.84003498148314 0  -5.760154976727328 42.29498317292558 0  -5.528209491505485 42.57451803375853 0  -5.176153993954163 42.0190796688555 0  -5.807694053189419 23.94092513309738 0  -6.051107316059547 24.20650331089282 0  -5.699154014532574 24.75067073822935 0  -6.294367562964456 24.47214940146284 0  -5.455872577653995 24.4860357732451 0  -5.103926319817985 25.0197439826552 0  -8.313785981492856 52.08925457966217 0  -8.078405007197462 51.82355236652734 0  -8.421250313870045 51.27900970587778 0  -7.842875415382504 51.55790696980451 0  -8.656672739275539 51.54471078214193 0  -9 50.99999999998153 0  -5.857032085254566 38.1080138678513 0  -6.094965205128385 37.8379948874671 0  -5.744322356551613 37.29827548929075 0  -6.333046496685386 37.56803484534908 0  -5.506382098335981 37.56943746670591 0  -5.154617707412609 37.01819010619646 0  -5.845934762372488 34.94073493502807 0  -6.086460130404986 35.20616944316763 0  -5.738773168027797 35.75008489382718 0  -6.326832952877968 35.47166742405579 0  -5.498366533220887 35.48573846434662 0  -5.15071895271161 36.01879822213556 0  -7.943171814833112 50.50944083590749 0  -7.892990490008573 51.03369944859811 0  -8.471739477195765 50.75466760032519 0  -6.226736308938636 36.51964524685757 0  -6.279913250191836 37.04371688805227 0  -5.690812887821867 36.77243184378006 0  -6.276754308230434 35.99552047374794 0  -5.688964708045789 36.27219526527044 0  -6.056228686149147 25.28157621613896 0  -6.175256945871706 24.87690331541155 0  -5.580275758426047 25.15430290956649 0  -8.053563780487478 25.75297088458176 0  -7.934195012195564 26.15184223650751 0  -8.526845651961787 25.8764888212367 0  -7.016404871687156 34.39042801868811 0  -6.671409190749109 34.93116593073638 0  -6.919719386319647 35.25375187713628 0  -7.264742348414743 34.71318153983976 0  -7.512899285350723 35.03589919388119 0  -7.16562193705818 52.63858794362209 0  -7.504028450432433 52.09835583079597 0  -7.260523116196646 51.77607935138073 0  -6.922137698694995 52.31637466194291 0  -6.678464336605397 51.99421790222996 0  -7.025770066459649 38.63849391924879 0  -6.679618522825056 38.10338020818666 0  -6.925551291590476 37.77689580104031 0  -7.27168346887076 38.31218841895058 0  -7.517775388055026 37.98583804443624 0  -6.992374315469821 23.39053414035074 0  -6.643165074072934 23.93141523032149 0  -6.894461855486455 24.25409268484691 0  -7.243701650953279 23.71335280768788 0  -7.494850681624822 24.03611554259892 0  -7.904000294024116 17.50933363412245 0  -7.85423960144078 18.03039713378072 0  -8.452150201863496 17.75461278671375 0  -7.852933949734692 16.98909508062104 0  -8.45185035988659 17.2546968828019 0  -7.893549892131364 8.509545729679225 0  -7.843277968878901 9.030832870758422 0  -8.446916583096018 8.754774923918355 0  -7.934180396799518 2.423891429123788 0  -7.859907598612044 2.987602345652737 0  -8.467223140798394 2.711973471783407 0  -7.84202777352424 7.989129851620389 0  -8.446629826006056 8.254766166005739 0  -7.893962979308616 49.98911614217729 0  -8.471430996921791 50.25475213902399 0  -6.156610333514723 41.61238460135144 0  -6.249964912758478 42.08706
[...]
<PointData  Vectors="f_27"> 
<DataArray  type="Float64"  Name="f_27"  NumberOfComponents="3" format="ascii">0.0000000000000000e+00 0.0000000000000000e+00 0.0000000000000000e+00  8.7660452014443539e-06 -1.0434652585314516e-02 0.0000000000000000e+00  0.0000000000000000e+00 0.0000000000000000e+00 0.0000000000000000e+00  0.0000000000000000e+00 0.0000000000000000e+00 0.0000000000000000e+00  -1.6741274385935912e-06 -1.4631384973212385e-02 0.0000000000000000e+00  1.8280441781799488e-05 -1.5046210264313209e-02 0.0000000000000000e+00  0.0000000000000000e+00 0.0000000000000000e+00 0.0000000000000000e+00  4.0919859072898714e-05 -1.0621989528960098e-02 0.0000000000000000e+00  0.0000000000000000e+00 0.0000000000000000e+00 0.0000000000000000e+00  0.0000000000000000e+00 0.0000000000000000e+00 0.0000000000000000e+00  8.3203785341804266e-05 -1.4583764668597690e-02 0.0000000000000000e+00  6.4873204261600906e-05 -1.5104602333295497e-02 0.0000000000000000e+00  0.0000000000000000e+00 0.0000000000000000e+00 0.0000000000000000e+00  4.1683926599826653e-05 -1.0326460387915203e-02 0.0000000000000000e+00  0.0000000000000000e+00 0.0000000000000000e+00 0.0000000000000000e+00  0.0000000000000000e+00 0.0000000000000000e+00 0.0000000000000000e+00  8.4256865463045225e-05 -1.4462136918133202e-02 0.0000000000000000e+00  6.9315562688683635e-05 -1.4984352569841135e-02 0.0000000000000000e+00  0.0000000000000000e+00 0.0000000000000000e+00 0.0000000000000000e+00  1.7597250238734486e-05 -1.0857611929278001e-02 0.0000000000000000e+00  0.0000000000000000e+00 0.0000000000000000e+00 0.0000000000000000e+00  0.0000000000000000e+00 0.0000000000000000e+00 0.0000000000000000e+00  2.5858238211565530e-05 -1.4537828435408526e-02 0.0000000000000000e+00  3.7633261379250468e-05 -1.5034164371578776e-02 0.0000000000000000e+00  0.0000000000000000e+00 0.0000000000000000e+00 0.0000000000000000e+00  2.9647584588507751e-05 -1.0616657149262104e-02 0.0000000000000000e+00  6.5825724935208882e-05 -1.4241930538773508e-02 0.0000000000000000e+00  5.6116691909219111e-05 -1.4742792525663139e-02 0.0000000000000000e+00  0.0000000000000000e+00 0.0000000000000000e+00 0.0000000000000000e+00  0.0000000000000000e+00 0.0000000000000000e+00 0.0000000000000000e+00  0.0000000000000000e+00 0.0000000000000000e+00 0.0000000000000000e+00  3.9893303887483075e-05 -1.0598632361682559e-02 0.0000000000000000e+00  0.0000000000000000e+00 0.0000000000000000e+00 0.0000000000000000e+00  0.0000000000000000e+00 0.0000000000000000e+00 0.0000000000000000e+00  5.7719686857331896e-05 -1.4393769107159605e-02 0.0000000000000000e+00  5.7830669884793382e-05 -1.4791991666394626e-02 0.0000000000000000e+00  0.0000000000000000e+00 0.0000000000000000e+00 0.0000000000000000e+00  3.5677728175047004e-05 -1.0229336894763612e-02 0.0000000000000000e+00  2.8338682731801939e-05 -1.4392207715298557e-02 0.0000000000000000e+00  4.3307648634071351e-05 -1.4903185630186380e-02 0.0000000000000000e+00  0.0000000000000000e+00 0.0000000000000000e+00 0.0000000000000000e+00  0.0000000000000000e+00 0.0000000000000000e+00 0.0000000000000000e+00  0.0000000000000000e+00 0.0000000000000000e+00 0.0000000000000000e+00  2.8059012392838780e-05 -1.0411469691022251e-02 0.0000000000000000e+00  0.0000000000000000e+00 0.0000000000000000e+00 0.0000000000000000e+00  0.0000000000000000e+00 0.0000000000000000e+00 0.0000000000000000e+00  2.2485171741679006e-05 -1.4565504838217887e-02 0.0000000000000000e+00  3.6344750346982440e-05 -1.4936810541433240e-02 0.0000000000000000e+00  0.0000000000000000e+00 0.0000000000000000e+00 0.0000000000000000e+00  5.4248891490094026e-05 -1.0995966810217974e-02 0.0000000000000000e+00  4.1246205233038271e-05 -1.4292893768631769e-02 0.0000000000000000e+00  5.9944750848385373e-05 -1.4761153721587761e-02 0.0000000000000000e+00  0.0000000000000000e+00 0.0000000000000000e+00 0.0000000000000000e+00  0.0000000000000000e+00 0.0000000000000000e+00 0.0000000000000000e+00  0.0000000000000000e+00 0.0000000000000000e+00 0.0000000000000000e+00  2.4969681391393326e-05 -1.1006508845476496e-02 0.0000000000000000e+00  5.4786578565660320e-05 -1.4293304803101439e-02 0.0000000000000000e+00  4.4802806706037341e-05 -1.4754553042897661e-02 0.0000000000000000e+00  0.0000000000000000e+00 0.0000000000000000e+00 0.0000000000000000e+00  0.0000000000000000e+00 0.0000000000000000e+00 0.0000000000000000e+00  8.0751156367425450e-05 -1.5313570287119873e-02 0.0000000000000000e+00  9.0567090560416346e-05 -1.5327028839094290e-02 0.0000000000000000e+00  8.0307715919215040e-05 -1.5326068239653984e-02 0.0000000000000000e+00  7.6382324757851838e-05 -1.5325114483447415e-02 0.0000000000000000e+00  8.5322334517046923e-05 -1.5325607597212970e-02 0.0000000000000000e+00  8.1570163692380417e-05 -1.5275811500871060e-02 0.0000000000000000e+00  1.0413179489505808e-04 -1.5235541388065661e-02 0.0000000000000000e+00  9.6982705243008781e-05 -1.5233973493081964e-02 0.0000000000000000e+00  1.0514783633120722e-04 -1.5254885247960346e-02 0.0000000000000000e+00  1.0240133434914662e-04 -1.5250738740588759e-02 0.0000000000000000e+00  9.5940634974819408e-05 -1.5246163071603805e-02 0.0000000000000000e+00  8.4244451889241455e-05 -1.5188412038904650e-02 0.0000000000000000e+00  9.0419514703212752e-05 -1.5277025948295782e-02 0.0000000000000000e+00  7.9259244463000280e-05 -1.5284159689009976e-02 0.0000000000000000e+00  8.2331906135051252e-05 -1.5292057693123447e-02 0.0000000000000000e+00  7.3086301695004805e-05 -1.5298427253942815e-02 0.0000000000000000e+00  8.5353345567751004e-05 -1.5280753253882224e-02 0.0000000000000000e+00  7.6297047270572390e-05 -1.5216500459449698e-02 0.0000000000000000e+00  8.6773351235108114e-05 -1.5660406914941544e-02 0.0000000000000000e+00  7.8004010107559098e-05 -1.5673038515897259e-02 0.0000000000000000e+00  8.2773339767390724e-05 -1.5678776165818881e-02 0.0000000000000000e+00  8.2562288196149291e-05 -1.5683573288405795e-02 0.0000000000000000e+00  7.9582061257386152e-05 -1.5672264873131819e-02 0.0000000000000000e+00  6.9516153652286915e-05 -1.5616019184992943e-02 0.0000000000000000e+00  7.4866765271079441e-05 -1.5438885543635381e-02 0.0000000000000000e+00  9.0344252513516472e-05 -1.5429699764869964e-02 0.0000000000000000e+00  7.6182881366343281e-05 -1.5454051946681827e-02 0.0000000000000000e+00  7.3588251195435262e-05 -1.5441097651749480e-02 0.0000000000000000e+00  8.3192288358134787e-05 -1.5445490039941865e-02 0.0000000000000000e+00  8.3021296720990121e-05 -1.5385697293201136e-02 0.0000000000000000e+00  9.5242001601279907e-05 -1.5704425461598556e-02 0.0000000000000000e+00  8.6269220541027115e-05 -1.5698055243534521e-02 0.0000000000000000e+00  9.0734030608363448e-05 -1.5708831811853022e-02 0.0000000000000000e+00  8.7001686514784530e-05 -1.5703655221096138e-02 0.0000000000000000e+00  8.8187697958707283e-05 -1.5702643359783223e-02 0.0000000000000000e+00  8.6710792765632628e-05 -1.5644872678825708e-02 0.0000000000000000e+00  9.2464381282900856e-05 -1.5642906567379378e-02 0.0000000000000000e+00  8.5854333177016773e-05 -1.5643698301862786e-02 0.0000000000000000e+00  8.6449603176284078e-05 -1.5649208576276098e-02 0.0000000000000000e+00  8.4200052266309662e-05 -1.5645163915067466e-02 0.0000000000000000e+00  9.1640333544110798e-05 -1.5648979958156187e-02 0.0000000000000000e+00  9.4300661726094440e-05 -1.5588253357598046e-02 0.0000000000000000e+00  8.5254100146929223e-05 -1.5603244242027308e-02 0.0000000000000000e+00  7.8752714726296208e-05 -1.5617019806146751e-02 0.0000000000000000e+00  8.2182919075497342e-05 -1.5622053718538783e-02 0.0000000000000000e+00  8.2768070528878749e-05 -1.5627020324620492e-02 0.0000000000000000e+00  7.9173594597261912e-05 -1.5614148412635432e-02 0.0000000000000000e+00  7.1016159792883419e-05 -1.5554020446579140e-02 0.0000000000000000e+00  9.8436518750475821e-05 -1.5576644437409465e-02 0.0000000000000000e+00  9.1117463417116166e-05 -1.5574311761420602e-02 0.0000000000000000e+00  9.9096214120194328e-05 -1.5594712143706139e-02 0.0000000000000000e+00  9.6081636127341426e-05 -1.5589614565090183e-02 0.0000000000000000e+00  9.0026996102949292e-05 -1.5588020959751462e-02 0.0000000000000000e+00  7.8579092120438008e-05 -1.5530494668315083e-02 0.0000000000000000e+00  1.0995526059223670e-04 -1.5537143967156386e-02 0.0000000000000000e+00  8.8537768510473137e-05 -1.5543768285772792e-02 0.0000000000000000e+00  1.0067248774727814e-04 -1.5559102985446733e-02 0.0000000000000000e+00  8.4544085660822249e-05 -1.5546604914562091e-02 0.0000000000000000e+00  9.9040642368856011e-05 -1.5559842390762284e-02 0.0000000000000000e+00  9.6839913954673376e-05 -1.5503646110036724e-02 0.0000000000000000e+00  1.0466412422410926e-04 -1.5469391471309386e-02 0.0000000000000000e+00  8.8517367570933495e-05 -1.5480779004838659e-02 0.0000000000000000e+00  9.8608470948407064e-05 -1.5484511821357821e-02 0.0000000000000000e+00  8.6111251714711591e-05 -1.5475668872853753e-02 0.0000000000000000e+00  9.1227733901710168e-05 -1.5482719561794740e-02 0.0000000000000000e+00  8.5994582096117757e-05 -1.5430234002557002e-02 0.0000000000000000e+00  6.6579080322421241e-05 -1.4577087153616599e-02 0.0000000000000000e+00  8.5758547663170796e-05 -1.5410508814634891e-02 0.0000000000000000e+00  9.6162032455867846e-05 -1.4754526054102161e-02 0.0000000000000000e+00  6.1223490610675220e-05 -1.0475375379386130e-02 0.0000000000000000e+00  0.0000000000000000e+00 0.0000000000000000e+00 0.0000000000000000e+00  6.8498588453861804e-05 -1.4501089277354287e-02 0.0000000000000000e+00  7.8007312583359614e-05 -1.5326779674143361e-02 0.0000000000000000e+00  8.0665329558343330e-05 -1.4676705135763673e-02 0.0000000000000000e+00  5.4146907883262878e-05 -1.0383600965158992e-02 0.0000000000000000e+00  0.0000000000000000e+00 0.0000000000000000e+00 0.0000000000000000e+00  7.3805914245341544e-05 -1.4616035178742277e-02 0.0000000000000000e+00  6.9353767973367393e-05 -1.5427318640281905e-02 0.0000000000000000e+00  5.6091535071725326e-05 -1.4861151994674205e-02 0.0000000000000000e+00  3.3723044816811038e-05 -1.0388175090473701e-02 0.0000000000000000e+00  0.0000000000000000e+00 0.0000000000000000e+00 0.0000000000000000e+00  8.9878665453974323e-05 -1.4459743680523662e-02 0.0000000000000000e+00  1.2584142925012930e-04 -1.5278695596408001e-02 0.0000000000000000e+00  5.7698984399042602e-05 -1.4691195482188397e-02 0.0000000000000000e+00  4.1502223325029419e-05 -1.0406623034907086e-02 0.0000000000000000e+00  0.0000000000000000e+00 0.0000000000000000e+00 0.0000000000000000e+00  7.1716072703026720e-05 -1.4634090307271979e-02 0.0000000000000000e+00  6.7971234282569856e-05 -1.5453872183434081e-02 0.0000000000000000e+00  5.6792795684901398e-05 -1.4799862801441861e-02 0.0000000000000000e+00  4.1777176216258304e-05 -1.0510233702027152e-02 0.0000000000000000e+00  0.0000000000000000e+00 0.0000000000000000e+00 0.0000000000000000e+00  7.5163576391865808e-05 -1.4658893034541119e-02 0.0000000000000000e+00  8.7858592958508627e-05 -1.5486812827987714e-02 0.0000000000000000e+00  9.6706010074068213e-05 -1.4827244956572110e-02 0.0000000000000000e+00  6.4459010123581065e-05 -1.0552094632883615e-02 0.0000000000000000e+00  0.0000000000000000e+00 0.0000000000000000e+00 0.0000000000000000e+00  7.4823156934593262e-05 -1.4727905844111809e-02 0.0000000000000000e+00  8.3811308862820927e-05 -1.5532033225848053e-02 0.0000000000000000e+00  8.9996233021086486e-05 -1.4969229042410267e-02 0.0000000000000000e+00  6.6573343400003557e-05 -1.0502179237607625e-02 0.0000000000000000e+00  0.0000000000000000e+00 0.0000000000000000e+00 0.0000000000000000e+00  6.4481920025210782e-05 -1.4707750952755724e-02 0.0000000000000000e+00  6.0823070835329976e-05 -1.5508507003685772e-02 0.0000000000000000e+00  4.9980302510910472e-05 -1.4936988258504693e-02 0.0000000000000000e+00  2.9422796572767902e-05 -1.0471380228136552e-02 0.0000000000000000e+00  0.0000000000000000e+00 0.0000000000000000e+00 0.0000000000000000e+00  7.3978661900468289e-05 -1.4284639056644656e-02 0.0000000000000000e+00  7.1748779251258089e-05 -1.5110775591345585e-02 0.0000000000000000e+00  6.1899054858164694e-05 -1.4472454223757992e-02 0.0000000000000000e+00  4.3708414653383111e-05 -1.0171258225635423e-02 0.0000000000000000e+00  0.0000000000000000e+00 0.0000000000000000e+00 0.0000000000000000e+00  7.8346235224167074e-05 -1.4266923244097852e-02 0.0000000000000000e+00  7.5064574117202616e-05 -1.5082076070179225e-02 0.0000000000000000e+00  6.2264246006410974e-05 -1.4529068426113114e-02 0.0000000000000000e+00  3.8045423193224752e-05 -1.0051351167672605e-02 0.0000000000000000e+00  0.0000000000000000e+00 0.0000000000000000e+00 0.0000000000000000e+00  8.7966713520512034e-05 -1.4344301952137541e-02 0.0000000000000000e+00  1.2437328855720783e-04 -1.5166684846829037e-02 0.0000000000000000e+00  4.9006763970478138e-05 -1.4580465078534272e-02 0.0000000000000000e+00  4.0234093046495315e-05 -1.0289889975384792e-02 0.0000000000000000e+00  0.0000000000000000e+00 0.0000000000000000e+00 0.0000000000000000e+00  9.6120510185461282e-05 -1.4586938253495937e-02 0.0000000000000000e+00  1.2965830179142987e-04 -1.5368300538220385e-02 0.0000000000000000e+00  7.7665727509954591e-05 -1.4644750915131038e-02 0.0000000000000000e+00  9.3176164442820394e-05 -1.5451717032415541e-02 0.0000000000000000e+00  5.6339479386996581e-05 -1.0373710698561812e-02 0.0000000000000000e+00  0.0000000000000000e+00 0.0000000000000000e+00 0.0000000000000000e+00  7.4836970528596779e-05 -1.4288624122194888e-02 0.0000000000000000e+00  8.9977987422688464e-05 -1.5068575215782589e-02 0.0000000000000000e+00  9.7402504150986298e-05 -1.4419861544875911e-02 0.0000000000000000e+00  9.5567438997744530e-05 -1.5151805595759607e-02 0.0000000000000000e+00  6.1734156435953644e-05 -1.0167835985339768e-02 0.0000000000000000e+00  0.0000000000000000e+00 0.0000000000000000e+00 0.0000000000000000e+00  9.3685791902841311e-05 -1.4451869556831776e-02 0.0000000000000000e+00  1.1784143537674473e-04 -1.5210338980776053e-02 0.0000000000000000e+00  3.7800234118639416e-05 -1.4620535968064475e-02 0.0000000000000000e+00  7.6976776315749101e-05 -1.5301369821933034e-02 0.0000000000000000e+00  4.1744731918362566e-05 -1.0384249526568377e-02 0.0000000000000000e+00  0.0000000000000000e+00 0.0000000000000000e+00 0.0000000000000000e+00  1.0869067534161814e-04 -1.4491985997974697e-02 0.0000000000000000e+00  1.4426082228253861e-04 -1.5246627776333408e-02 0.0000000000000000e+00  8.4109617726383816e-05 -1.4639012739805958e-02 0.0000000000000000e+00  1.0064939960391935e-04 -1.5342544622032075e-02 0.0000000000000000e+00  6.7933807047037639e-05 -1.0150481606821558e-02 0.0000000000000000e+00  0.0000000000000000e+00 0.0000000000000000e+00 0.0000000000000000e+00  8.4853660265749731e-05 -1.4582921579892749e-02 0.0000000000000000e+00  9.7092267099187018e-05 -1.5158942297071641e-02 0.0000000000000000e+00  1.0066308227506570e-04 -1.4041592481842073e-02 0.0000000000000000e+00  1.8049208705639457e-05 -1.4736029409436337e-02 0.0000000000000000e+00  4.9023812430879558e-05 -1.5308242802371587e-02 0.0000000000000000e+00  -3.9521507811905031e-05 -1.4202288815046886e-02 0.0000000000000000e+00  7.5889360722631972e-05 -1.5259495475107918e-02 0.0000000000000000e+00  -2.3479579956801459e-05 -9.8130950618385837e-03 0.0000000000000000e+00  3.5053207210966679e-05 -1.5011094298863284e-02 0.0000000000000000e+00  7.2312252379749811e-05 -1.5440915103162894e-02 0.0000000000000000e+00  5.2708078578921819e-06 -1.4409510795191871e-02 0.0000000000000000e+00  7.5373013059877735e-05 -1.4943700008844625e-02 0.0000000000000000e+00  8.0303358067253385e-05 -1.5420601957995227e-02 0.0000000000000000e+00  8.1482336422916059e-05 -1.4384718328413919e-02 0.0000000000000000e+00  9.0907602090672013e-05 -1.5407712345118809e-02 0.0000000000000000e+00  1.0722786932146313e-04 -1.5388481265380876e-02 0.0000000000000000e+00  9.3057719582968285e-05 -1.5406397142688913e-02 0.0000000000000000e+00  9.2656990114857901e-05 -1.5408777012438870e-02 0.0000000000000000e+00  8.4500301667008682e-05 -1.5391685910019708e-02 0.0000000000000000e+00  9.2889713026886284e-05 -1.5189847253339507e-02 0.0000000000000000e+00  8.5628074444378966e-05 -1.5178428780493894e-02 0.0000000000000000e+00  9.5536919800194345e-05 -1.5209198365347726e-02 0.0000000000000000e+00  9.8692962863202428e-05 -1.5205297755355637e-02 0.0000000000000000e+00  9.7858608393301704e-05 -1.5183584645796167e-02 0.0000000000000000e+00  8.2549610584345615e-05 -1.5363139333220378e-02 0.0000000000000000e+00  9.8878282711939062e-05 -1.5344406825035389e-02 0.0000000000000000e+00  8.1237949503863984e-05 -1.5364769424284988e-02 0.0000000000000000e+00  8.2587489076459589e-05 -1.5369398037864477e-02 0.0000000000000000e+00  7.3515996609074377e-05 -1.5358378432449339e-02 0.0000000000000000e+00  8.3358167284040932e-05 -1.5517994708089794e-02 0.0000000000000000e+00  9.8374163667163390e-05 -1.5503614984935982e-02 0.0000000000000000e+00  8.5317769737301754e-05 -1.5517151961906847e-02 0.0000000000000000e+00  8.5022592742507800e-05 -1.5517993302352033e-02 0.0000000000000000e+00  7.5705857755342144e-05 -1.5493771019969071e-02 0.0000000000000000e+00  8.2023900089003490e-05 -1.4927374712850246e-02 0.0000000000000000e+00  9.6253555612979251e-05 -1.5506197949687668e-02 0.0000000000000000e+00  1.0070143222513555e-04 -1.4389938015766789e-02 0.0000000000000000e+00  7.1563255294337095e-05 -1.5454804537624121e-02 0.0000000000000000e+00  4.5602765961071108e-05 -9.9719693672832375e-03 0.0000000000000000e+00  7.8619958976183308e-05 -1.5009363558536930e-02 0.0000000000000000e+00  9.3484157108625644e-05 -1.5586196164791587e-02 0.0000000000000000e+00  9.9991652955652219e-05 -1.4466692910541746e-02 0.0000000000000000e+00  7.5845978247724623e-05 -1.5158073090778018e-02 0.0000000000000000e+00  8.3263789964129124e-05 -1.5581062238798949e-02 0.0000000000000000e+00  5.0999684305974649e-05 -1.0176645020408362e-02 0.0000000000000000e+00  6.5342208170700430e-05 -1.5536443558999359e-02 0.0000000000000000e+00  4.3549148867588198e-05 -1.0041937915274824e-02 0.0000000000000000e+00  7.6511453614244989e-05 -1.5109170260498793e-02 0.0000000000000000e+00  4.8371984687288388e-05 -9.6759829769981192e-03 0.0000000000000000e+00  1.1575001498231364e-05 -1.4777871036609155e-02 0.0000000000000000e+00  5.9862075602941344e-05 -1.5281797208659175e-02 0.0000000000000000e+00  -2.3881314181434037e-05 -1.4180931859804421e-02 0.0000000000000000e+00  7.3716284965241952e-05 -1.5510279496757602e-02 0.0000000000000000e+00  8.0495861749689938e-05 -1.5519621858705639e-02 0.0000000000000000e+00  7.7017694471782298e-05 -1.5515116717064981e-02 0.0000000000000000e+00  9.5680347534119286e-05 -1.5220216395537731e-02 0.0000000000000000e+00  9.7018047033509274e-05 -1.5224585718653509e-02 0.0000000000000000e+00  9.5008176621625985e-05 -1.5216468159416741e-02 0.0000000000000000e+00  6.9674859493737450e-05 -1.5372727588270060e-02 0.0000000000000000e+00  6.9850358463233967e-05 -1.5371468188405452e-02 0.0000000000000000e+00  7.4763580773625198e-05 -1.5373895625287520e-02 0.0000000000000000e+00  8.0707397088553525e-05 -1.5401726074466745e-02 0.0000000000000000e+00  8.6062356672572313e-05 -1.5404989931443985e-02 0.0000000000000000e+00  8.5537871777543429e-05 -1.5405431535694514e-02 0.0000000000000000e+00  2.0630050115566472e-05 -1.4920928586699647e-02 0.0000000000000000e+00  6.2780628980354906e-05 -1.5387070769814395e-02 0.0000000000000000e+00  -2.5093597538385053e-05 -1.4331542826661501e-02 0.0000000000000000e+00  8.2178436111554365e-05 -1.5270490148664490e-02 0.0000000000000000e+00  9.8472080248464939e-05 -1.5259155552010689e-02 0.0000000000000000e+00  8.4042641379095538e-05 -1.5330682179140366e-02 0.0000000000000000e+00  9.6643716424843769e-05 -1.4846346152395168e-02 0.0000000000000000e+00  9.0247925580173573e-05 -1.5160182352828278e-02 0.0000000000000000e+00  9.9584955973033292e-05 -1.5234922629514197e-02 0.0000000000000000e+00  7.6176923348012142e-05 -1.5232742979199233e-02 0.0000000000000000e+00  7.7260650211608529e-05 -1.5206602702579926e-02 0.0000000000000000e+00  7.5930303935831906e-05 -1.5287072868400229e-02 0.000