<?xml version="1.0"?>
<VTKFile type="UnstructuredGrid"  version="0.1"  >
<UnstructuredGrid>
<Piece  NumberOfPoints="2530" NumberOfCells="4544">
<Points>
<DataArray  type="Float64"  NumberOfComponents="3"  format="ascii">-0.005 0.02899999999991747 0  -0.005567606561449265 0.02972952735170602 0  -0.005567606561449265 0.02922952735170672 0  -0.006135213122898529 0.02945905470349596 0  -0.005 0.02949999999991678 0  -0.005 0.02999999999991609 0  -0.008999999999999999 0.02999999999991609 0  -0.008477881325601233 0.02929081058473642 0  -0.008999999999999999 0.02949999999991678 0  -0.008999999999999999 0.02899999999991747 0  -0.008477881325601233 0.02979081058473573 0  -0.007955762651202469 0.02958162116955536 0  -0.008999999999999999 0.05699999999999127 0  -0.008455575182696982 0.05771508614433647 0  -0.008455575182696982 0.05721508614433456 0  -0.007911150365393967 0.05743017228867785 0  -0.008999999999999999 0.05749999999999318 0  -0.008999999999999999 0.05799999999999508 0  -0.006562500000003323 0.04699999999996404 0  -0.007410380031513026 0.04710817040743875 0  -0.006801005031513838 0.04733733707410809 0  -0.007039510063024354 0.04767467414825214 0  -0.007171875000002511 0.0467708333332947 0  -0.007781250000001699 0.04654166666662536 0  -0.006562499999996975 0.007999999999982715 0  -0.007410380031513406 0.007891829592506899 0  -0.006801005031512716 0.007662662925842622 0  -0.007039510063028456 0.007325325851702528 0  -0.007171874999997664 0.008229166666646992 0  -0.007781249999998355 0.008458333333311269 0  -0.006562499999996577 0.01099999999997411 0  -0.007410380031513544 0.01110817040744999 0  -0.006801005031512696 0.01133733707411394 0  -0.007039510063028815 0.01167467414825377 0  -0.007171874999997425 0.01077083333331016 0  -0.007781249999998272 0.01054166666664622 0  -0.005 0.02399999999993442 0  -0.005590674212597458 0.02326230314954376 0  -0.005 0.02349999999993588 0  -0.005 0.02299999999993733 0  -0.005590674212597458 0.02376230314954231 0  -0.006181348425194916 0.0235246062991502 0  -0.005 0.02099999999994222 0  -0.005564630812322937 0.0217315610722294 0  -0.005564630812322937 0.02123156107223086 0  -0.006129261624645875 0.0214631221445195 0  -0.005 0.02149999999994076 0  -0.005 0.0219999999999393 0  -0.008999999999999999 0.01999999999994686 0  -0.008409325787402531 0.01926230314955595 0  -0.008999999999999999 0.01949999999994807 0  -0.008999999999999999 0.01899999999994928 0  -0.008409325787402531 0.01976230314955475 0  -0.007818651574805061 0.01952460629916263 0  -0.008999999999999999 0.02499999999992978 0  -0.008409325787402541 0.02573769685032071 0  -0.008409325787402541 0.02523769685032191 0  -0.007818651574805081 0.02547539370071405 0  -0.008999999999999999 0.02549999999992857 0  -0.008999999999999999 0.02599999999992736 0  -0.008999999999999999 0.01599999999995916 0  -0.008409325787402512 0.01526230314956849 0  -0.008999999999999999 0.01549999999996053 0  -0.008999999999999999 0.0149999999999619 0  -0.008409325787402512 0.01576230314956713 0  -0.007818651574805024 0.01552460629917509 0  -0.008999999999999999 0.01799999999995125 0  -0.008435915727826615 0.01725427993967504 0  -0.008999999999999999 0.01749999999995307 0  -0.008999999999999999 0.01699999999995488 0  -0.008435915727826615 0.01775427993967323 0  -0.007871831455653231 0.0175085598793952 0  -0.008999999999999999 0.02699999999992539 0  -0.008434239959724898 0.02774706184850321 0  -0.008434239959724898 0.02724706184850503 0  -0.007868479919449797 0.02749412369708466 0  -0.008999999999999999 0.02749999999992357 0  -0.008999999999999999 0.02799999999992175 0  -0.008999999999999999 0.01399999999996497 0  -0.008437765310767197 0.0132645357198448 0  -0.008999999999999999 0.01349999999996647 0  -0.008999999999999999 0.01299999999996796 0  -0.008437765310767197 0.0137645357198433 0  -0.007875530621534396 0.01352907143972163 0  -0.005 0.002999999999993196 0  -0.005590674212597853 0.003737696850384681 0  -0.005590674212597853 0.003237696850385873 0  -0.006181348425195706 0.00347539370077855 0  -0.005 0.003499999999992004 0  -0.005 0.003999999999990813 0  -0.005 0.004999999999989164 0  -0.005559084057905018 0.005728935712846076 0  -0.005559084057905018 0.005228935712846881 0  -0.006118168115810037 0.005457871425704597 0  -0.005 0.00549999999998836 0  -0.005 0.005999999999987554 0  -0.005 0.05299999999997999 0  -0.005590674212599118 0.05373769685037712 0  -0.005590674212599118 0.05323769685037585 0  -0.006181348425198237 0.05347539370077171 0  -0.005 0.05349999999998126 0  -0.005 0.05399999999998254 0  -0.008999999999999999 0.05199999999997907 0  -0.008409325787400907 0.05126230314958195 0  -0.008999999999999999 0.0514999999999778 0  -0.008999999999999999 0.05099999999997653 0  -0.008409325787400907 0.05176230314958322 0  -0.007818651574801817 0.05152460629918738 0  -0.005 0.03699999999993814 0  -0.005590674212599064 0.03626230314954104 0  -0.005 0.03649999999993686 0  -0.005 0.03599999999993558 0  -0.005590674212599064 0.03676230314954232 0  -0.006181348425198127 0.03652460629914649 0  -0.005 0.03799999999993905 0  -0.005590674212599059 0.03873769685033618 0  -0.005590674212599059 0.0382376968503349 0  -0.006181348425198119 0.03847539370073075 0  -0.005 0.03849999999994033 0  -0.005 0.0389999999999416 0  -0.008999999999999999 0.04499999999995907 0  -0.008409325787400921 0.04426230314956281 0  -0.008999999999999999 0.04449999999995852 0  -0.008999999999999999 0.04399999999995796 0  -0.008409325787400921 0.04476230314956336 0  -0.007818651574801844 0.04452460629916766 0  -0.005 0.05499999999998635 0  -0.005561924071815199 0.05574035198473451 0  -0.005561924071815199 0.05524035198473292 0  -0.006123848143630398 0.05548070396947949 0  -0.005 0.05549999999998795 0  -0.005 0.05599999999998954 0  -0.008999999999999999 0.04999999999997271 0  -0.008437330811979935 0.04925705943891855 0  -0.008999999999999999 0.04949999999997112 0  -0.008999999999999999 0.04899999999996952 0  -0.008437330811979935 0.04975705943892015 0  -0.00787466162395987 0.04951411887786759 0  -0.005 0.03499999999993177 0  -0.005554118008684467 0.03427588870688815 0  -0.005 0.03449999999993018 0  -0.005 0.03399999999992859 0  -0.005554118008684467 0.03477588870688975 0  -0.006108236017368934 0.03455177741384772 0  -0.005 0.03999999999994542 0  -0.005565787062146483 0.04074708348495108 0  -0.005565787062146483 0.0402470834849495 0  -0.006131574124292967 0.04049416696995358 0  -0.005 0.04049999999994701 0  -0.005 0.04099999999994859 0  -0.008999999999999999 0.04299999999995415 0  -0.008434212937853522 0.04225291651494782 0  -0.008999999999999999 0.04249999999995224 0  -0.008999999999999999 0.04199999999995033 0  -0.008434212937853522 0.04275291651494972 0  -0.007868425875707045 0.0425058330299453 0  -0.008249816699198017 0.05835749671693449 0  -0.008080483532295991 0.05789383450280617 0  -0.008624908349599008 0.05817874835846479 0  -0.005 0.05699999999999127 0  -0.005564814814815426 0.05763425925925437 0  -0.005564814814815426 0.05713425925925246 0  -0.006129629629630853 0.05726851851851365 0  -0.005 0.05749999999999318 0  -0.005 0.05799999999999508 0  -0.007812500000000279 0.05881250000000175 0  -0.007487215909092686 0.05955539772727215 0  -0.007906250000003019 0.05940625000000088 0  -0.008000000000005759 0.06 0  -0.007393465909089946 0.05896164772727303 0  -0.006974431818179612 0.0591107954545443 0  -0.008269129548671622 0.01109390078343537 0  -0.008025189774334947 0.0108177837250408 0  -0.008390624999999135 0.01027083333331175 0  -0.008634564774335812 0.01054695039170632 0  -0.008999999999999999 0.009999999999977279 0  -0.008269129548671525 0.007906099216521786 0  -0.00802518977433494 0.008182216274916528 0  -0.008390624999999177 0.008729166666645676 0  -0.008634564774335763 0.008453049608250935 0  -0.008999999999999999 0.008999999999980083 0  -0.008269129548669827 0.04709390078342088 0  -0.008025189774335762 0.04681778372502312 0  -0.008390625000000849 0.04627083333329277 0  -0.008634564774334913 0.04654695039169052 0  -0.008999999999999999 0.04599999999996016 0  -0.008273872863797757 0.03191632356681653 0  -0.008025109529492163 0.03218405924682916 0  -0.008388173097593283 0.03272589746338432 0  -0.007776346195186568 0.03245179492684179 0  -0.008636936431898879 0.03245816178337169 0  -0.008999999999999999 0.03299999999992685 0  -0.008017414784897241 0.03353452586113938 0  -0.007896880490041905 0.03299316039399058 0  -0.00850870739244862 0.03326726293053311 0  -0.007057671392325 0.03137590312127503 0  -0.007417008793755784 0.03191384902405841 0  -0.007160048097594804 0.03223839746338272 0  -0.00680071069616402 0.03170045156059935 0  -0.006543750000003041 0.03202499999992366 0  -0.007883928571428122 0.00949999999997868 0  -0.007832589285713197 0.01002083333331245 0  -0.00844196428571406 0.009749999999977979 0  -0.007832589285713239 0.008979166666644976 0  -0.00844196428571406 0.009249999999979382 0  -0.007040819314031163 0.03285586844587998 0  -0.007408582754608865 0.03265383168636089 0  -0.006792284657017102 0.03244043422290183 0  -0.005872353521460591 0.05810919245179558 0  -0.006000991575545722 0.05768885548515462 0  -0.005436176760730296 0.05805459622589533 0  -0.00786502184884123 0.04771008739533377 0  -0.007823135924421465 0.04712587703097956 0  -0.007452265955932792 0.04769238077179296 0  -0.007865021848844505 0.007289912604609198 0  -0.00782313592442143 0.007874122968960234 0  -0.007452265955936481 0.007307619228155863 0  -0.007865021848844829 0.01171008739534793 0  -0.007823135924421552 0.01112587703099708 0  -0.007452265955936822 0.01169238077180085 0  -0.008184288543895116 0.02249999999993832 0  -0.007988733012405148 0.02298711832054615 0  -0.007383909739089816 0.02298711832054615 0  -0.007793177480915178 0.02347423664115397 0  -0.007579465270579786 0.02249999999993833 0  -0.006974641997264455 0.02249999999993833 0  -0.007988733012405137 0.02201288167933051 0  -0.007383909739089808 0.02201288167933051 0  -0.007793177480915159 0.02152576335872269 0  -0.005819248789178329 0.02649
[...]
<PointData  Vectors="f_23"> 
<DataArray  type="Float64"  Name="f_23"  NumberOfComponents="3" format="ascii">0.0000000000000000e+00 0.0000000000000000e+00 0.0000000000000000e+00  9.5148492236102855e-10 -3.4396275886143584e-03 0.0000000000000000e+00  1.8110466514401740e-09 -5.0061543965954818e-03 0.0000000000000000e+00  1.0978724528200120e-09 -5.1687476271058252e-03 0.0000000000000000e+00  0.0000000000000000e+00 0.0000000000000000e+00 0.0000000000000000e+00  0.0000000000000000e+00 0.0000000000000000e+00 0.0000000000000000e+00  0.0000000000000000e+00 0.0000000000000000e+00 0.0000000000000000e+00  -1.5233240193186129e-09 -3.6007224322966275e-03 0.0000000000000000e+00  0.0000000000000000e+00 0.0000000000000000e+00 0.0000000000000000e+00  0.0000000000000000e+00 0.0000000000000000e+00 0.0000000000000000e+00  -6.1193953190836201e-11 -4.9607898454437577e-03 0.0000000000000000e+00  -1.9839843783735248e-09 -5.1473603916629097e-03 0.0000000000000000e+00  0.0000000000000000e+00 0.0000000000000000e+00 0.0000000000000000e+00  5.5922418371033509e-09 -3.4215695059923970e-03 0.0000000000000000e+00  -1.7925388100377940e-07 -5.0037285889697695e-03 0.0000000000000000e+00  -1.8884030949229984e-07 -5.1595451545623930e-03 0.0000000000000000e+00  0.0000000000000000e+00 0.0000000000000000e+00 0.0000000000000000e+00  0.0000000000000000e+00 0.0000000000000000e+00 0.0000000000000000e+00  -1.5168413619686863e-09 -5.3316170452488033e-03 0.0000000000000000e+00  -3.0031371458503566e-09 -5.3381652842547766e-03 0.0000000000000000e+00  3.5594173584741321e-09 -5.3394012611448190e-03 0.0000000000000000e+00  6.0320224083257792e-09 -5.3390155082186485e-03 0.0000000000000000e+00  -5.6289480386967212e-09 -5.3380133890950981e-03 0.0000000000000000e+00  -5.2189207760920987e-09 -5.3126893044713160e-03 0.0000000000000000e+00  1.3573796700262372e-09 -5.3319888064628663e-03 0.0000000000000000e+00  8.4247057053511239e-10 -5.3382826475471060e-03 0.0000000000000000e+00  -2.1511704942874600e-09 -5.3394263271411809e-03 0.0000000000000000e+00  -1.6482106884331967e-09 -5.3391818110553766e-03 0.0000000000000000e+00  4.2665200988954247e-09 -5.3381743656931539e-03 0.0000000000000000e+00  -6.0185673178776678e-10 -5.3113789783126482e-03 0.0000000000000000e+00  -1.5488599675269511e-09 -5.3320436011359594e-03 0.0000000000000000e+00  -5.0688209966676547e-09 -5.3382448913368461e-03 0.0000000000000000e+00  -2.8022808555656399e-09 -5.3394391431967753e-03 0.0000000000000000e+00  -3.2074201553856656e-09 -5.3390057651563488e-03 0.0000000000000000e+00  -3.1155446835873238e-09 -5.3385002399208032e-03 0.0000000000000000e+00  -6.9552596233987526e-09 -5.3151506410202215e-03 0.0000000000000000e+00  0.0000000000000000e+00 0.0000000000000000e+00 0.0000000000000000e+00  2.2005878046854929e-09 -3.5529771486355151e-03 0.0000000000000000e+00  0.0000000000000000e+00 0.0000000000000000e+00 0.0000000000000000e+00  0.0000000000000000e+00 0.0000000000000000e+00 0.0000000000000000e+00  4.5236623666211981e-09 -5.0112421159424058e-03 0.0000000000000000e+00  2.5270297085140663e-09 -5.1611611247827059e-03 0.0000000000000000e+00  0.0000000000000000e+00 0.0000000000000000e+00 0.0000000000000000e+00  3.1521433131825703e-09 -3.5967715435063627e-03 0.0000000000000000e+00  4.7948779233384601e-09 -5.0101814910079000e-03 0.0000000000000000e+00  6.2055004799639657e-09 -5.1706874957793414e-03 0.0000000000000000e+00  0.0000000000000000e+00 0.0000000000000000e+00 0.0000000000000000e+00  0.0000000000000000e+00 0.0000000000000000e+00 0.0000000000000000e+00  0.0000000000000000e+00 0.0000000000000000e+00 0.0000000000000000e+00  1.9468630165311729e-10 -3.5384965435286343e-03 0.0000000000000000e+00  0.0000000000000000e+00 0.0000000000000000e+00 0.0000000000000000e+00  0.0000000000000000e+00 0.0000000000000000e+00 0.0000000000000000e+00  1.6930045625648094e-09 -5.0107580720642050e-03 0.0000000000000000e+00  4.8888573491478807e-10 -5.1623285989222511e-03 0.0000000000000000e+00  0.0000000000000000e+00 0.0000000000000000e+00 0.0000000000000000e+00  3.7482838176635461e-10 -3.5776551975014699e-03 0.0000000000000000e+00  -2.0827751884036568e-09 -5.0089921220302690e-03 0.0000000000000000e+00  -2.6948323849795046e-09 -5.1647746940173111e-03 0.0000000000000000e+00  0.0000000000000000e+00 0.0000000000000000e+00 0.0000000000000000e+00  0.0000000000000000e+00 0.0000000000000000e+00 0.0000000000000000e+00  0.0000000000000000e+00 0.0000000000000000e+00 0.0000000000000000e+00  4.3553131245118841e-09 -3.5498389701472356e-03 0.0000000000000000e+00  0.0000000000000000e+00 0.0000000000000000e+00 0.0000000000000000e+00  0.0000000000000000e+00 0.0000000000000000e+00 0.0000000000000000e+00  4.9597302672683319e-09 -5.0016020310069669e-03 0.0000000000000000e+00  5.7728207445326014e-09 -5.1543587259882456e-03 0.0000000000000000e+00  0.0000000000000000e+00 0.0000000000000000e+00 0.0000000000000000e+00  3.3354906887663382e-10 -3.5516806544918927e-03 0.0000000000000000e+00  0.0000000000000000e+00 0.0000000000000000e+00 0.0000000000000000e+00  0.0000000000000000e+00 0.0000000000000000e+00 0.0000000000000000e+00  -1.5618929428980473e-09 -5.0034882910522443e-03 0.0000000000000000e+00  -9.5683392753258974e-10 -5.1641271920375518e-03 0.0000000000000000e+00  0.0000000000000000e+00 0.0000000000000000e+00 0.0000000000000000e+00  -2.6250578573207198e-09 -3.7023626672812778e-03 0.0000000000000000e+00  -1.6985469673323244e-09 -4.9719159029173714e-03 0.0000000000000000e+00  -5.0855362593567141e-09 -5.1562654053147255e-03 0.0000000000000000e+00  0.0000000000000000e+00 0.0000000000000000e+00 0.0000000000000000e+00  0.0000000000000000e+00 0.0000000000000000e+00 0.0000000000000000e+00  0.0000000000000000e+00 0.0000000000000000e+00 0.0000000000000000e+00  9.3279132797372697e-10 -3.4703224818526616e-03 0.0000000000000000e+00  0.0000000000000000e+00 0.0000000000000000e+00 0.0000000000000000e+00  0.0000000000000000e+00 0.0000000000000000e+00 0.0000000000000000e+00  3.9617176881568626e-09 -4.9980899849969137e-03 0.0000000000000000e+00  2.7084065590745414e-09 -5.1558265398540517e-03 0.0000000000000000e+00  0.0000000000000000e+00 0.0000000000000000e+00 0.0000000000000000e+00  -3.9920339101814692e-10 -3.5766277878660673e-03 0.0000000000000000e+00  1.3833107192901694e-09 -5.0127612420889072e-03 0.0000000000000000e+00  1.6368821061157750e-10 -5.1654519839440432e-03 0.0000000000000000e+00  0.0000000000000000e+00 0.0000000000000000e+00 0.0000000000000000e+00  0.0000000000000000e+00 0.0000000000000000e+00 0.0000000000000000e+00  0.0000000000000000e+00 0.0000000000000000e+00 0.0000000000000000e+00  -2.1805862386782576e-09 -3.4524287840986480e-03 0.0000000000000000e+00  -2.9649759409218663e-09 -4.9616465762938938e-03 0.0000000000000000e+00  -2.6330807254916675e-09 -5.1428061057239060e-03 0.0000000000000000e+00  0.0000000000000000e+00 0.0000000000000000e+00 0.0000000000000000e+00  0.0000000000000000e+00 0.0000000000000000e+00 0.0000000000000000e+00  0.0000000000000000e+00 0.0000000000000000e+00 0.0000000000000000e+00  5.3860487010164545e-09 -3.5530918645213625e-03 0.0000000000000000e+00  1.3168745227712059e-08 -5.0113358355958698e-03 0.0000000000000000e+00  1.3424566910273931e-08 -5.1616895809093325e-03 0.0000000000000000e+00  0.0000000000000000e+00 0.0000000000000000e+00 0.0000000000000000e+00  0.0000000000000000e+00 0.0000000000000000e+00 0.0000000000000000e+00  0.0000000000000000e+00 0.0000000000000000e+00 0.0000000000000000e+00  7.8214509009445269e-09 -3.5776226761306072e-03 0.0000000000000000e+00  0.0000000000000000e+00 0.0000000000000000e+00 0.0000000000000000e+00  0.0000000000000000e+00 0.0000000000000000e+00 0.0000000000000000e+00  1.6567977419212904e-08 -5.0090116228703021e-03 0.0000000000000000e+00  2.1460735705932668e-08 -5.1648293510556101e-03 0.0000000000000000e+00  0.0000000000000000e+00 0.0000000000000000e+00 0.0000000000000000e+00  1.9646303338209405e-09 -3.5288254763697663e-03 0.0000000000000000e+00  0.0000000000000000e+00 0.0000000000000000e+00 0.0000000000000000e+00  0.0000000000000000e+00 0.0000000000000000e+00 0.0000000000000000e+00  4.7087533766529324e-09 -5.0042108670120900e-03 0.0000000000000000e+00  9.6649853795941639e-10 -5.1562713204954267e-03 0.0000000000000000e+00  0.0000000000000000e+00 0.0000000000000000e+00 0.0000000000000000e+00  7.3860919665460105e-09 -3.5632121059919648e-03 0.0000000000000000e+00  1.1459026499399492e-08 -4.9699801790516656e-03 0.0000000000000000e+00  5.7227419167326220e-09 -5.1474844429015313e-03 0.0000000000000000e+00  0.0000000000000000e+00 0.0000000000000000e+00 0.0000000000000000e+00  0.0000000000000000e+00 0.0000000000000000e+00 0.0000000000000000e+00  0.0000000000000000e+00 0.0000000000000000e+00 0.0000000000000000e+00  -2.9980018082736328e-10 -3.5515205933947390e-03 0.0000000000000000e+00  0.0000000000000000e+00 0.0000000000000000e+00 0.0000000000000000e+00  0.0000000000000000e+00 0.0000000000000000e+00 0.0000000000000000e+00  -7.4038567795445964e-10 -5.0104866928715984e-03 0.0000000000000000e+00  -1.6238032016827508e-09 -5.1577032543082520e-03 0.0000000000000000e+00  0.0000000000000000e+00 0.0000000000000000e+00 0.0000000000000000e+00  1.7172878838738094e-08 -3.4525109571367442e-03 0.0000000000000000e+00  -2.9865458959240828e-08 -4.9983201193410055e-03 0.0000000000000000e+00  -2.1942363673148814e-09 -5.1585104183328239e-03 0.0000000000000000e+00  0.0000000000000000e+00 0.0000000000000000e+00 0.0000000000000000e+00  0.0000000000000000e+00 0.0000000000000000e+00 0.0000000000000000e+00  0.0000000000000000e+00 0.0000000000000000e+00 0.0000000000000000e+00  -2.5597508866049828e-09 -3.5271197626623551e-03 0.0000000000000000e+00  0.0000000000000000e+00 0.0000000000000000e+00 0.0000000000000000e+00  0.0000000000000000e+00 0.0000000000000000e+00 0.0000000000000000e+00  2.6748040274051852e-09 -4.9673187822287046e-03 0.0000000000000000e+00  5.6506784667718286e-09 -5.1488837368537117e-03 0.0000000000000000e+00  0.0000000000000000e+00 0.0000000000000000e+00 0.0000000000000000e+00  1.9775191392133032e-09 -3.3324683295199585e-03 0.0000000000000000e+00  0.0000000000000000e+00 0.0000000000000000e+00 0.0000000000000000e+00  0.0000000000000000e+00 0.0000000000000000e+00 0.0000000000000000e+00  1.3091201705986323e-09 -4.9916421950128081e-03 0.0000000000000000e+00  3.4414319400506848e-09 -5.1503235930175180e-03 0.0000000000000000e+00  0.0000000000000000e+00 0.0000000000000000e+00 0.0000000000000000e+00  2.6504247643700805e-09 -3.6476574805962233e-03 0.0000000000000000e+00  7.9944025530860161e-09 -5.0043757102648740e-03 0.0000000000000000e+00  3.9967128665333300e-09 -5.1712848481142932e-03 0.0000000000000000e+00  0.0000000000000000e+00 0.0000000000000000e+00 0.0000000000000000e+00  0.0000000000000000e+00 0.0000000000000000e+00 0.0000000000000000e+00  0.0000000000000000e+00 0.0000000000000000e+00 0.0000000000000000e+00  -2.1093930745450292e-09 -3.6472747081364352e-03 0.0000000000000000e+00  0.0000000000000000e+00 0.0000000000000000e+00 0.0000000000000000e+00  0.0000000000000000e+00 0.0000000000000000e+00 0.0000000000000000e+00  -8.7791594869957494e-10 -5.0037160763564117e-03 0.0000000000000000e+00  -1.2875988889842381e-09 -5.1687949676588497e-03 0.0000000000000000e+00  1.2873669934307451e-07 -4.9706323880136629e-03 0.0000000000000000e+00  1.6217563456326702e-08 -5.2362327095668614e-03 0.0000000000000000e+00  1.2481716312509338e-07 -3.4736471756308656e-03 0.0000000000000000e+00  0.0000000000000000e+00 0.0000000000000000e+00 0.0000000000000000e+00  2.5588672937372543e-07 -3.3610802857349351e-03 0.0000000000000000e+00  2.3360725730542869e-07 -4.9895155448101223e-03 0.0000000000000000e+00  3.3796980548271077e-07 -5.1378898173507336e-03 0.0000000000000000e+00  0.0000000000000000e+00 0.0000000000000000e+00 0.0000000000000000e+00  0.0000000000000000e+00 0.0000000000000000e+00 0.0000000000000000e+00  1.5094535604362315e-07 -5.3227697641925528e-03 0.0000000000000000e+00  8.2955553532571858e-08 -5.3386062008904762e-03 0.0000000000000000e+00  -2.2045201714685122e-08 -5.3131541333696127e-03 0.0000000000000000e+00  -3.9161372705110137e-08 -5.3141741230888044e-03 0.0000000000000000e+00  9.8375451291606829e-08 -5.3387852013052940e-03 0.0000000000000000e+00  3.8851604088106522e-07 -5.3351083967006141e-03 0.0000000000000000e+00  -7.3465868594484153e-09 -4.9161403488817744e-03 0.0000000000000000e+00  -1.1427030115099770e-08 -5.2554437119651356e-03 0.0000000000000000e+00  -1.0167164645640415e-08 -5.0689020342623067e-03 0.0000000000000000e+00  -5.0693702365417370e-09 -3.2116913986354407e-03 0.0000000000000000e+00  0.0000000000000000e+00 0.0000000000000000e+00 0.0000000000000000e+00  -1.6359145537096416e-09 -4.9075788954628941e-03 0.0000000000000000e+00  -3.6509987084064421e-09 -5.2586682935062854e-03 0.0000000000000000e+00  -8.3716970670412812e-09 -5.0351578662721080e-03 0.0000000000000000e+00  -4.7089388921863863e-09 -3.2594938061415828e-03 0.0000000000000000e+00  0.0000000000000000e+00 0.0000000000000000e+00 0.0000000000000000e+00  -8.7777457911260288e-09 -4.9082126252567382e-03 0.0000000000000000e+00  -9.5330958201020448e-09 -5.2584975484972511e-03 0.0000000000000000e+00  -5.4654961897288460e-09 -5.0373241104109730e-03 0.0000000000000000e+00  -4.8252358372999198e-09 -3.2564308264113628e-03 0.0000000000000000e+00  0.0000000000000000e+00 0.0000000000000000e+00 0.0000000000000000e+00  7.1954912052262188e-10 -4.9429153192174823e-03 0.0000000000000000e+00  9.7340514642283527e-10 -5.2604137353728748e-03 0.0000000000000000e+00  3.1912503056801899e-09 -5.0720231333377759e-03 0.0000000000000000e+00  2.1987495927268477e-09 -5.3150133300449093e-03 0.0000000000000000e+00  4.4472326679905585e-10 -3.2259262807903177e-03 0.0000000000000000e+00  0.0000000000000000e+00 0.0000000000000000e+00 0.0000000000000000e+00  7.4188346169726364e-09 -5.1354720889326385e-03 0.0000000000000000e+00  5.2622428364852112e-09 -5.2800141672838382e-03 0.0000000000000000e+00  4.3285809084339863e-09 -3.2087462681432534e-03 0.0000000000000000e+00  5.7910647892351233e-10 -5.3369496075952282e-03 0.0000000000000000e+00  -1.1129684102759567e-10 -5.3325361930659952e-03 0.0000000000000000e+00  1.6118050671128270e-09 -5.3383318093974579e-03 0.0000000000000000e+00  1.4854993693231865e-09 -5.3395980244439010e-03 0.0000000000000000e+00  3.8465952423988335e-09 -5.3296742052981651e-03 0.0000000000000000e+00  -1.0342720337650736e-08 -5.0619343457124254e-03 0.0000000000000000e+00  -1.1983530736947573e-08 -5.2723410785609865e-03 0.0000000000000000e+00  -1.0181659370061254e-08 -3.1841561570413804e-03 0.0000000000000000e+00  -5.4170794669574610e-09 -5.3011285505207171e-03 0.0000000000000000e+00  -1.5892001550374617e-08 -4.8269912685099097e-03 0.0000000000000000e+00  4.2265964335376516e-09 -5.3363663268201529e-03 0.0000000000000000e+00  2.3138396613843774e-09 -5.3390633331425177e-03 0.0000000000000000e+00  3.2543376641128765e-09 -5.3397136275104042e-03 0.0000000000000000e+00  4.9731509191651420e-07 -5.0430326554449997e-03 0.0000000000000000e+00  6.1945824900278972e-07 -5.1841111677424093e-03 0.0000000000000000e+00  2.4095414286922054e-07 -4.8883401703105544e-03 0.0000000000000000e+00  -5.4086361500780822e-09 -5.3135903732895243e-03 0.0000000000000000e+00  -7.3744671284122309e-09 -5.3083310415985019e-03 0.0000000000000000e+00  7.5712579156850899e-10 -5.3382846423984959e-03 0.0000000000000000e+00  1.0181130511029600e-09 -5.3158855621026468e-03 0.0000000000000000e+00  8.1076544212090685e-10 -5.3083621649737140e-03 0.0000000000000000e+00  2.1678332582718613e-09 -5.3386186461274136e-03 0.0000000000000000e+00  -4.9258744065459354e-09 -5.3137488042941236e-03 0.0000000000000000e+00  -6.4478425741853205e-09 -5.3099358526069746e-03 0.0000000000000000e+00  -4.5898006189528918e-09 -5.3383012525134764e-03 0.0000000000000000e+00  5.6995625821860411e-09 -5.1056468174039901e-03 0.0000000000000000e+00  3.0842866295389949e-09 -5.3087170201826829e-03 0.0000000000000000e+00  4.3494689487086333e-09 -5.3232267676305584e-03 0.0000000000000000e+00  -2.1827010618443443e-10 -5.3258484015215896e-03 0.0000000000000000e+00  6.5107686535722839e-09 -5.3225106385064794e-03 0.0000000000000000e+00  7.3230006261682919e-09 -5.3223538902960636e-03 0.0000000000000000e+00  8.5308486966124921e-09 -5.3087487632222895e-03 0.0000000000000000e+00  8.7031800884116179e-09 -5.3233691046650541e-03 0.0000000000000000e+00  7.7284061378337277e-09 -5.3259424204510318e-03 0.0000000000000000e+00  4.6697007573682118e-09 -5.1139985435467430e-03 0.0000000000000000e+00  3.2345942719362899e-09 -5.3135747486742066e-03 0.0000000000000000e+00  8.8569034447337283e-10 -5.3216852483033263e-03 0.0000000000000000e+00  5.3006551795646458e-10 -5.3113870993780257e-03 0.0000000000000000e+00  3.6207979951823892e-09 -5.3229162045591817e-03 0.0000000000000000e+00  -2.6548906727276037e-10 -5.3247261557213431e-03 0.0000000000000000e+00  -2.7145484207974603e-09 -5.1140820006812466e-03 0.0000000000000000e+00  -5.7854269417859234e-09 -5.3136430625967792e-03 0.0000000000000000e+00  -3.9012936340417907e-09 -5.3218076614921263e-03 0.0000000000000000e+00  -3.2616930944828909e-09 -5.3117459500379377e-03 0.0000000000000000e+00  -2.9182325777717889e-09 -5.3229684466573092e-03 0.0000000000000000e+00  -2.5755433891768213e-09 -5.3250501862671506e-03 0.0000000000000000e+00  8.5737010705965783e-09 -5.3134790928675082e-03 0.0000000000000000e+00  4.4328329732001121e-09 -5.3217409991813134e-03 0.0000000000000000e+00  6.6082447404586286e-09 -5.3111590994820374e-03 0.0000000000000000e+00  -1.0117587977544812e-09 -5.3135083008703805e-03 0.0000000000000000e+00  -1.4602504709227363e-09 -5.3217623508401667e-03 0.0000000000000000e+00  2.3982282416369908e-10 -5.3111866214257779e-03 0.0000000000000000e+00  4.5675705896377178e-09 -5.1175405622809591e-03 0.0000000000000000e+00  5.9363251222207120e-09 -5.3139696669547267e-03 0.0000000000000000e+00  5.8166122660288757e-09 -5.3219753788380005e-03 0.0000000000000000e+00  6.4617816471941257e-09 -5.3117444797376925e-03 0.0000000000000000e+00  5.5818264869243789e-09 -5.3232331425145914e-03 0.0000000000000000e+00  5.1529424727488844e-09 -5.3249385036120665e-03 0.0000000000000000e+00  5.1014898187162272e-09 -5.3138509405023437e-03 0.0000000000000000e+00  4.7724508163395239e-09 -5.3216815490258283e-03 0.0000000000000000e+00  3.8371508206490453e-09 -5.3103744815149873e-03 0.0000000000000000e+00  -4.1045468419731358e-09 -5.1172188417190328e-03 0.0000000000000000e+00  -3.5560215212880390e-09 -5.3131326153644243e-03 0.0000000000000000e+00  -3.0943230175793911e-09 -5.3215311631067894e-03 0.0000000000000000e+00  -2.2903698506714463e-09 -5.3032725212792987e-03 0.0000000000000000e+00  -4.6632672202772906e-09 -5.3231895764690599e-03 0.0000000000000000e+00  -3.1591528605271834e-09 -5.3247419409699001e-03 0.0000000000000000e+00  -6.3949762511974790e-09 -5.3138876004604416e-03 0.0000000000000000e+00  -5.0429799153310476e-09 -5.3216793417154417e-03 0.0000000000000000e+00  -5.8993245542914656e-09 -5.3111703321683905e-03 0.0000000000000000e+00  1.0993555208204667e-08 -5.1139483085297669e-03 0.0000000000000000e+00  1.6986780060749839e-08 -5.3134596628114676e-03 0.0000000000000000e+00  1.8254992106083830e-08 -5.3216747127711635e-03 0.0000000000000000e+00  2.0410334197400171e-08 -5.3110687034150401e-03 0.0000000000000000e+00  1.5259767836100449e-08 -5.3229112556489704e-03 0.0000000000000000e+00  1.5048226560522954e-08 -5.3246987566624238e-03 0.0000000000000000e+00  8.4868596570915891e-09 -5.1334676895273606e-03 0.0000000000000000e+00  6.9290970392899408e-09 -5.2913025837513410e-03 0.0000000000000000e+00  4.4114673563511985e-09 -5.3247644215179630e-03 0.0000000000000000e+00  2.4854981206321881e-09 -5.3145106725109251e-03 0.0000000000000000e+00  7.4555250539115856e-09 -5.3228524148213009e-03 0.0000000000000000e+00  4.2821359212255664e-09 -5.3256811804995334e-03 0.0000000000000000e+00  -8.5012030798154015e-09 -5.1139831135170438e-03 0.0000000000000000e+00  -1.0896083925724355e-08 -5.3134781927930965e-03 0.0000000000000000e+00  -7.2692632200979287e-09 -5.3216579030696265e-03 0.0000000000000000e+00  -7.