<?xml version="1.0"?>
<VTKFile type="UnstructuredGrid"  version="0.1"  >
<UnstructuredGrid>
<Piece  NumberOfPoints="2690" NumberOfCells="4864">
<Points>
<DataArray  type="Float64"  NumberOfComponents="3"  format="ascii">-5.015686280619544 22.00342597215772 0  -5.616025685804571 21.2659628364792 0  -5.015369878537341 21.50370824187873 0  -5.015014318323936 21.00345192493107 0  -5.616329052757671 21.76602337690607 0  -6.216990235451782 21.52806577110324 0  -9 21.99999999996945 0  -8.399164871201361 21.26321638619682 0  -9 21.49999999997139 0  -9 20.99999999997333 0  -8.399218877604598 21.76321233579872 0  -7.79838660105584 21.52641582864069 0  -9 32.9999999999446 0  -8.400353837359475 32.26320520653235 0  -9 32.49999999994358 0  -9 31.99999999994255 0  -8.400407902638403 32.76320615727737 0  -7.800764490546527 32.52640435965048 0  -5.023580898501308 33.00370693478828 0  -5.539795457839776 32.30002654230524 0  -5.023248174524512 32.50419786497423 0  -5.022881148480952 32.00359078121729 0  -5.540107141718962 32.80012063485587 0  -6.05665199595733 32.59600330052874 0  -5.038727303665745 54.00354806425846 0  -5.63642981676085 54.7408794057995 0  -5.636131958345715 54.24102624221796 0  -6.233508055318099 54.47798884266629 0  -5.039063471371218 54.50379779078141 0  -5.039387636855114 55.00358046376942 0  -9 54.99999999998974 0  -8.475086977862825 54.29671972136044 0  -9 54.49999999998872 0  -9 53.99999999998769 0  -8.475133444303246 54.79670544842593 0  -7.950229754937361 54.59341539519657 0  -9 39.99999999995897 0  -8.401271483094 40.73819454952431 0  -8.401217433900554 40.23819520284646 0  -7.802486320245493 40.47638043334272 0  -9 40.49999999996 0  -9 40.99999999996102 0  -5.029328465646324 41.00328867348488 0  -5.601107099945787 40.27135537094585 0  -5.028999610450941 40.50381648898186 0  -5.028656996429815 40.00370485297299 0  -5.601411475167327 40.77129929788295 0  -6.173522166022522 40.5387113615542 0  -9 55.99999999999179 0  -8.427567709208212 56.74396953955369 0  -8.427521630166652 56.24396061864622 0  -7.855091568445368 56.48792080243898 0  -9 56.49999999999282 0  -9 56.99999999999384 0  -5.040157222396012 56.00339368444934 0  -5.613061456930653 56.74672249411628 0  -5.612764421745082 56.24670849428647 0  -6.185333386561223 56.48960321262991 0  -5.04051437689368 56.50391122348326 0  -5.040837103409202 57.0035904411298 0  -7.449523853163013 43.0019391574269 0  -6.608216439085817 43.11119851094168 0  -7.21296326871099 43.33960494218586 0  -6.976431456749136 43.67727373227576 0  -6.84474926144765 42.77351178896104 0  -6.239923882989157 42.5450844075 0  -6.583880400997817 49.00365335607552 0  -7.424291823312521 48.89418970831823 0  -6.820158714910504 48.66596157283549 0  -7.056466738506749 48.32825926388495 0  -7.187985668762263 49.23187396386957 0  -7.792040629181544 49.46012085091785 0  -6.582563738802299 46.00343306913079 0  -7.423434027483746 45.89404836811521 0  -6.818972453414336 45.66570250496035 0  -7.055410534217254 45.32798958848431 0  -7.186998154568375 46.23175906463619 0  -7.7913822410151 46.46007199848124 0  -6.56553429836357 7.003561773886138 0  -7.412328736129717 6.894148574878062 0  -6.803610391931672 6.665867829384767 0  -7.041715805858629 6.32817480966738 0  -7.174225562756077 7.231841279046373 0  -7.782866780229552 7.460117878503187 0  -7.445878127032776 30.00191734284282 0  -6.602591760250209 30.11115058433771 0  -7.20876137406021 30.33953122103398 0  -6.971673635307647 30.67713356626808 0  -6.839681054687455 29.77352543714328 0  -6.233432925457917 29.5451518422843 0  -6.564253943853412 4.00339253706866 0  -7.411560224713044 4.110383817193171 0  -6.802716070149067 4.34042775344946 0  -7.041150411630683 4.677451565261375 0  -7.173127683574618 3.773352787061005 0  -7.782044553971979 3.543335709775024 0  -6.566836017520103 10.00359386667281 0  -7.413237956132946 10.1105183469105 0  -6.805048216295561 10.34058398780722 0  -7.043232112609518 10.67757411380406 0  -7.17505215683794 9.773531455531652 0  -7.783318304011777 9.543465171535127 0  -6.568140518287051 13.00362360316831 0  -7.414027280131648 12.89419843263443 0  -6.805960388819844 12.66593083074927 0  -7.043809412080039 12.32823930632643 0  -7.17617992070823 13.23189542613452 0  -7.784169714470413 13.46015675198179 0  -6.569449113797651 16.00367912825093 0  -7.414880747746469 15.89421435844437 0  -6.807140455485782 15.66599033403965 0  -7.044861246294635 15.32829272030117 0  -7.177161835410445 16.23189879482049 0  -7.784824572272629 16.46013926510676 0  -6.570763111960196 19.00329373687759 0  -7.415799859307358 19.11028486183857 0  -6.808593905059967 19.340225801959 0  -7.046395116405983 19.67717853355708 0  -7.177996663654635 18.77332177675578 0  -7.785280805552898 18.54334012751912 0  -6.574257026224159 27.00316994483877 0  -7.418078242599412 27.11020710012419 0  -6.811744635692513 27.34017120781495 0  -7.049203367586284 27.67717734891692 0  -7.180617731079396 26.77318160868409 0  -7.787028526472148 26.54322205874844 0  -8.271619508393837 19.09487135032586 0  -8.028462302978019 18.81910031462107 0  -8.392610684840873 18.27167962420419 0  -8.63577372951762 18.5474506431442 0  -9 17.99999999998495 0  -8.272667135343765 27.09483226442719 0  -8.02985988593948 26.81902757650477 0  -8.39348472591108 26.27160790935894 0  -8.636297769415501 26.54741550950841 0  -9 25.99999999995395 0  -8.271200704609688 15.90719059725561 0  -8.028000538134878 16.18366688241507 0  -8.392441867919711 16.73006180525908 0  -8.635636208075047 16.45358961640754 0  -9 16.99999999998883 0  -5.748456572340019 30.09808892331802 0  -5.990931755636104 29.82161570501643 0  -5.627106116350409 29.27508933896019 0  -5.384621103974595 29.5517231472637 0  -5.020688397829124 29.00341974321327 0  -8.270808249779746 12.90718942980291 0  -8.027476930591964 13.18367236696067 0  -8.392114310631699 13.73007986707445 0  -8.635439845715071 13.45359637530728 0  -9 13.99999999999401 0  -8.270441636763298 10.0949806940923 0  -8.026891941864051 9.819223082126133 0  -8.391629749468814 9.271732007415414 0  -8.635185248698948 9.547489658173125 0  -9 8.99999999999857 0  -8.269672726863597 4.0949170361887 0  -8.025869624471712 3.819129254848217 0  -8.390998336779544 3.271662862418342 0  -8.634804497141978 3.547451378702262 0  -9 2.999999999998668 0  -8.270027562955645 6.907164475773798 0  -8.026435187165729 7.183640492880025 0  -8.391462715565186 7.730059976427381 0  -8.635049221655873 7.453584330674682 0  -9 7.999999999999485 0  -8.275133390411996 45.9071183173421 0  -8.033245727707484 46.18359121504804 0  -8.395720733967973 46.7300421386864 0  -8.637602517773317 46.45356958820232 0  -9 46.99999999997333 0  -8.275527673040074 48.9071772969458 0  -8.033771980498919 49.1836509615744 0  -8.396049985183129 49.73005238283226 0  -8.637799870476519 49.4535836986988 0  -9 49.99999999997949 0  -5.756087721584733 43.09812959126734 0  -5.997992608939881 42.82160489826295 0  -5.635019415571128 42.27497366317388 0  -5.39310533032541 42.55167726771091 0  -5.03002191489308 42.00328282083778 0  -5.74011576685752 23.92055161881957 0  -5.98796203047108 24.18791836147043 0  -5.626799897997625 24.73016586753113 0  -6.235782841504566 24.45529604895736 0  -5.37896740944189 24.46296178133538 0  -5.017882926086152 25.00341173774592 0  -8.280644806029823 52.08463418269974 0  -8.034154591164677 51.81724711084388 0  -8.393790020634418 51.27494415467102 0  -7.787640437858594 51.54986965732246 0  -8.640287027291777 51.54233101112869 0  -9 50.99999999998153 0  -5.748432194518076 38.08785651525839 0  -5.995353964087904 37.81972708547801 0  -5.634412516423179 37.27824530570858 0  -6.242301160322037 37.55161100552035 0  -5.387479975079659 37.546567671882 0  -5.026423413422605 37.00313003533059 0  -5.746572879686471 34.92051763772317 0  -5.993929481716171 35.18786007567684 0  -5.633485511420422 35.73006550429866 0  -6.241260659473414 35.45521321613484 0  -5.386140546631833 35.46290932962598 0  -5.025779599314738 36.00326293373009 0  -7.893874575500014 50.50176365962341 0  -7.840752467285846 51.02582093885997 0  -8.446962316954565 50.750872829752 0  -6.135192272832035 36.50338471568573 0  -6.188750653881996 37.02747635559982 0  -5.580807090600516 36.75386556724913 0  -6.188222400785785 35.97927787325975 0  -5.580503360995506 36.25383158074951 0  -5.990340929389271 25.26368172924695 0  -6.113053991323134 24.85949681416178 0  -5.504116485598871 25.13417211526443 0  -8.031971047577654 25.74704560561851 0  -7.90949099919395 26.14513372986244 0  -8.515996558218367 25.87352334547993 0  -6.954977704927106 34.37839964718385 0  -6.59808381341115 34.91682507137735 0  -6.853566199479117 35.24103741562124 0  -7.210464093123539 34.70263975357733 0  -7.465920295988344 35.0268738528879 0  -7.07597506934167 52.62658730025652 0  -7.431772859961921 52.08824647128039 0  -7.177101397172905 51.76408706737823 0  -6.821307316415703 52.30243798206684 0  -6.566609400607662 51.97829868502669 0  -6.956548200758276 38.62657303943936 0  -6.599459863541798 38.08911159193495 0  -6.854543613524595 37.7642309283526 0  -7.211627935761998 38.30172172632749 0  -7.466737814156835 37.97686340436897 0  -6.950919573280363 23.37841841660327 0  -6.593316088049901 23.91686855747683 0  -6.849304653554998 24.24109615234009 0  -7.206912250077201 23.70266963744391 0  -7.462874868675385 24.02691125655002 0  -7.887410651305 17.5016047241254 0  -7.836340822718403 18.02247749832333 0  -8.443730393755406 17.7507929878686 0  -7.836122392990698 16.9808738686978 0  -8.44368026240779 17.25080751629321 0  -7.885615804319668 8.501642786465316 0  -7.834462291510776 9.022554296111752 0  -8.442832687022895 8.750821771056318 0  -7.931760708537373 2.417023201148786 0  -7.856892388258018 2.980175085624944 0  -8.465903958774934 2.70851646694427 0  -7.834246019897556 7.980881232387934 0  -8.442783072191736 8.250820234363641 0  -7.842962490109039 49.98094428255132 0  -8.446912103111105 50.25088703393834 0  -6.048724330949773 41.5964236540792 0  -6.144331539924833 42.07076813764041 0  -5.539371672
[...]
<PointData  Vectors="f_27"> 
<DataArray  type="Float64"  Name="f_27"  NumberOfComponents="3" format="ascii">0.0000000000000000e+00 0.0000000000000000e+00 0.0000000000000000e+00  1.7097179339632190e-06 -7.7452731497620643e-03 0.0000000000000000e+00  0.0000000000000000e+00 0.0000000000000000e+00 0.0000000000000000e+00  0.0000000000000000e+00 0.0000000000000000e+00 0.0000000000000000e+00  -1.4563918067180645e-05 -1.0834465392824061e-02 0.0000000000000000e+00  -1.8699953758740990e-06 -1.1150666937005851e-02 0.0000000000000000e+00  0.0000000000000000e+00 0.0000000000000000e+00 0.0000000000000000e+00  7.4528367936909578e-06 -7.8858035847166660e-03 0.0000000000000000e+00  0.0000000000000000e+00 0.0000000000000000e+00 0.0000000000000000e+00  0.0000000000000000e+00 0.0000000000000000e+00 0.0000000000000000e+00  3.0267913857082774e-05 -1.0815112946652446e-02 0.0000000000000000e+00  1.7218638663379052e-05 -1.1197753582240162e-02 0.0000000000000000e+00  0.0000000000000000e+00 0.0000000000000000e+00 0.0000000000000000e+00  6.4747436596519080e-06 -7.7287982846343693e-03 0.0000000000000000e+00  0.0000000000000000e+00 0.0000000000000000e+00 0.0000000000000000e+00  0.0000000000000000e+00 0.0000000000000000e+00 0.0000000000000000e+00  2.8948834740026746e-05 -1.0795979208971454e-02 0.0000000000000000e+00  1.6195379429797074e-05 -1.1179253378665658e-02 0.0000000000000000e+00  0.0000000000000000e+00 0.0000000000000000e+00 0.0000000000000000e+00  7.5341483780026137e-07 -8.1144079383728210e-03 0.0000000000000000e+00  0.0000000000000000e+00 0.0000000000000000e+00 0.0000000000000000e+00  0.0000000000000000e+00 0.0000000000000000e+00 0.0000000000000000e+00  -7.4112655879711973e-06 -1.0839429393499767e-02 0.0000000000000000e+00  9.0756126802036977e-07 -1.1206883550390298e-02 0.0000000000000000e+00  0.0000000000000000e+00 0.0000000000000000e+00 0.0000000000000000e+00  7.2773153273089442e-06 -8.0691481522896531e-03 0.0000000000000000e+00  3.1529004358325437e-05 -1.0796065112100879e-02 0.0000000000000000e+00  1.6244605964930637e-05 -1.1160512290487618e-02 0.0000000000000000e+00  0.0000000000000000e+00 0.0000000000000000e+00 0.0000000000000000e+00  0.0000000000000000e+00 0.0000000000000000e+00 0.0000000000000000e+00  0.0000000000000000e+00 0.0000000000000000e+00 0.0000000000000000e+00  2.8767436038554705e-06 -8.0562188069615796e-03 0.0000000000000000e+00  0.0000000000000000e+00 0.0000000000000000e+00 0.0000000000000000e+00  0.0000000000000000e+00 0.0000000000000000e+00 0.0000000000000000e+00  8.7991019797781783e-06 -1.0889085153255334e-02 0.0000000000000000e+00  7.3855192889765201e-06 -1.1184100943285898e-02 0.0000000000000000e+00  0.0000000000000000e+00 0.0000000000000000e+00 0.0000000000000000e+00  2.6969241214703965e-06 -7.7022716679034965e-03 0.0000000000000000e+00  -1.5199340872556877e-05 -1.0789178537971386e-02 0.0000000000000000e+00  -2.9036392826746978e-06 -1.1166635869828101e-02 0.0000000000000000e+00  0.0000000000000000e+00 0.0000000000000000e+00 0.0000000000000000e+00  0.0000000000000000e+00 0.0000000000000000e+00 0.0000000000000000e+00  0.0000000000000000e+00 0.0000000000000000e+00 0.0000000000000000e+00  1.1676510724041310e-05 -7.8459229153101696e-03 0.0000000000000000e+00  0.0000000000000000e+00 0.0000000000000000e+00 0.0000000000000000e+00  0.0000000000000000e+00 0.0000000000000000e+00 0.0000000000000000e+00  -1.6530717640155288e-06 -1.0910205043250519e-02 0.0000000000000000e+00  5.6041186655805671e-06 -1.1192356150681065e-02 0.0000000000000000e+00  0.0000000000000000e+00 0.0000000000000000e+00 0.0000000000000000e+00  1.2137866827404537e-05 -8.3650844494879018e-03 0.0000000000000000e+00  -4.8667304184566324e-06 -1.0826198901664670e-02 0.0000000000000000e+00  7.8294418346734292e-06 -1.1176292214169872e-02 0.0000000000000000e+00  0.0000000000000000e+00 0.0000000000000000e+00 0.0000000000000000e+00  0.0000000000000000e+00 0.0000000000000000e+00 0.0000000000000000e+00  0.0000000000000000e+00 0.0000000000000000e+00 0.0000000000000000e+00  -3.4000912720549749e-06 -8.3656188398629917e-03 0.0000000000000000e+00  1.5840482418487903e-05 -1.0825605141239302e-02 0.0000000000000000e+00  3.6582049426626774e-06 -1.1172687260622061e-02 0.0000000000000000e+00  0.0000000000000000e+00 0.0000000000000000e+00 0.0000000000000000e+00  0.0000000000000000e+00 0.0000000000000000e+00 0.0000000000000000e+00  9.4405149534919449e-06 -1.1484016921028696e-02 0.0000000000000000e+00  8.9762579220376942e-06 -1.1491337263008126e-02 0.0000000000000000e+00  7.7329220217493618e-06 -1.1493070867518223e-02 0.0000000000000000e+00  6.9916005327448070e-06 -1.1493568818100059e-02 0.0000000000000000e+00  8.5435889629552332e-06 -1.1492029855332934e-02 0.0000000000000000e+00  2.1513044836544853e-06 -1.1449581808394537e-02 0.0000000000000000e+00  1.2578147933581918e-05 -1.1471877369395433e-02 0.0000000000000000e+00  1.1396633088865844e-05 -1.1465253670471616e-02 0.0000000000000000e+00  1.2734851900230630e-05 -1.1480203048863156e-02 0.0000000000000000e+00  1.2585794400286405e-05 -1.1473868836950224e-02 0.0000000000000000e+00  1.0455346807816303e-05 -1.1478179711460451e-02 0.0000000000000000e+00  5.3442876853031428e-06 -1.1436134862497527e-02 0.0000000000000000e+00  5.1061623538209067e-06 -1.1476328937182076e-02 0.0000000000000000e+00  5.4665088632581525e-06 -1.1482624043128062e-02 0.0000000000000000e+00  4.2429025752691881e-06 -1.1486602560962150e-02 0.0000000000000000e+00  4.3763240647849920e-06 -1.1489097366232342e-02 0.0000000000000000e+00  5.2377263656207816e-06 -1.1481229452512393e-02 0.0000000000000000e+00  2.1915324273399360e-06 -1.1438424612209307e-02 0.0000000000000000e+00  7.3166153360731058e-06 -1.1518619786725217e-02 0.0000000000000000e+00  5.7896272345952430e-06 -1.1524934651876961e-02 0.0000000000000000e+00  6.6344677373961920e-06 -1.1528193785750745e-02 0.0000000000000000e+00  7.6184629402678655e-06 -1.1528963401557705e-02 0.0000000000000000e+00  5.5129981695818253e-06 -1.1525915189698175e-02 0.0000000000000000e+00  1.2999769369386396e-06 -1.1486737333219902e-02 0.0000000000000000e+00  5.7421172152831893e-06 -1.1493058259703707e-02 0.0000000000000000e+00  1.0152070041696871e-05 -1.1490745486247273e-02 0.0000000000000000e+00  5.3948459989844587e-06 -1.1506531894126456e-02 0.0000000000000000e+00  6.1137841936502396e-06 -1.1499244257632544e-02 0.0000000000000000e+00  8.3001326127249074e-06 -1.1500906639984793e-02 0.0000000000000000e+00  6.1564388853262970e-06 -1.1456273102957867e-02 0.0000000000000000e+00  1.0448576227269595e-05 -1.1524018068473148e-02 0.0000000000000000e+00  1.1185703059328678e-05 -1.1529611160331424e-02 0.0000000000000000e+00  1.1112416561893034e-05 -1.1532723642653477e-02 0.0000000000000000e+00  1.0284804312462847e-05 -1.1532100475304114e-02 0.0000000000000000e+00  1.1040177783262866e-05 -1.1531348565282888e-02 0.0000000000000000e+00  1.4592203776008566e-05 -1.1494415102511403e-02 0.0000000000000000e+00  1.4658794865699898e-05 -1.1516274905573132e-02 0.0000000000000000e+00  1.4344999609385744e-05 -1.1520468763075158e-02 0.0000000000000000e+00  1.3903055195757152e-05 -1.1524111373222954e-02 0.0000000000000000e+00  1.2477814550712527e-05 -1.1523675719269945e-02 0.0000000000000000e+00  1.5864577194872534e-05 -1.1522372997016191e-02 0.0000000000000000e+00  2.0586002786002402e-05 -1.1477236161534404e-02 0.0000000000000000e+00  8.2305246073446147e-06 -1.1510470019330980e-02 0.0000000000000000e+00  7.5969759970098403e-06 -1.1516645600404064e-02 0.0000000000000000e+00  7.9955215623085538e-06 -1.1520113536506697e-02 0.0000000000000000e+00  9.2228016076695055e-06 -1.1521023257978841e-02 0.0000000000000000e+00  6.7463492378820780e-06 -1.1516744798086877e-02 0.0000000000000000e+00  2.8045569707975491e-06 -1.1474459758863201e-02 0.0000000000000000e+00  1.2196926929233818e-05 -1.1509672933211741e-02 0.0000000000000000e+00  1.1163752088505597e-05 -1.1502698669822328e-02 0.0000000000000000e+00  1.2509231802401909e-05 -1.1517824955922096e-02 0.0000000000000000e+00  1.2525779519481170e-05 -1.1511404672975265e-02 0.0000000000000000e+00  1.0012106610232061e-05 -1.1515694417803793e-02 0.0000000000000000e+00  4.9537151915274883e-06 -1.1473457530876977e-02 0.0000000000000000e+00  1.9735757355455266e-05 -1.1505933090343539e-02 0.0000000000000000e+00  1.4279727432570618e-05 -1.1502836130733083e-02 0.0000000000000000e+00  1.8155291268152485e-05 -1.1518499410325223e-02 0.0000000000000000e+00  1.4721507348578983e-05 -1.1510071414783676e-02 0.0000000000000000e+00  1.7579751771104572e-05 -1.1515205166396043e-02 0.0000000000000000e+00  2.0779174289155945e-05 -1.1466799317855913e-02 0.0000000000000000e+00  1.4758100855603444e-05 -1.1493383280087040e-02 0.0000000000000000e+00  1.3633390200075342e-05 -1.1504515709256076e-02 0.0000000000000000e+00  1.5526091671601415e-05 -1.1506437592367842e-02 0.0000000000000000e+00  1.3991014910425388e-05 -1.1502673451335902e-02 0.0000000000000000e+00  1.2932628278456329e-05 -1.1505111827252798e-02 0.0000000000000000e+00  1.5481937271409600e-05 -1.1465336139829401e-02 0.0000000000000000e+00  7.3449679860585491e-06 -1.0785259589102225e-02 0.0000000000000000e+00  1.7851912115044371e-05 -1.1396787193360135e-02 0.0000000000000000e+00  2.6498315444322423e-05 -1.0907803587474688e-02 0.0000000000000000e+00  1.5769524236762918e-05 -7.7701929784733470e-03 0.0000000000000000e+00  0.0000000000000000e+00 0.0000000000000000e+00 0.0000000000000000e+00  9.4104938721644368e-06 -1.0788900753569282e-02 0.0000000000000000e+00  1.3783979944593807e-05 -1.1391830576277238e-02 0.0000000000000000e+00  1.8921252332627877e-05 -1.0905569436416098e-02 0.0000000000000000e+00  1.1870302700653896e-05 -7.7607003798659310e-03 0.0000000000000000e+00  0.0000000000000000e+00 0.0000000000000000e+00 0.0000000000000000e+00  7.4031541542536703e-06 -1.0800361101917460e-02 0.0000000000000000e+00  1.8199928756641363e-06 -1.1396400675924135e-02 0.0000000000000000e+00  -6.6237838016750590e-06 -1.0979927798223970e-02 0.0000000000000000e+00  -7.9287658125305072e-06 -7.6975417834434547e-03 0.0000000000000000e+00  0.0000000000000000e+00 0.0000000000000000e+00 0.0000000000000000e+00  1.4725953633900907e-05 -1.0776477103992268e-02 0.0000000000000000e+00  1.3297361493306651e-05 -1.1383830284366403e-02 0.0000000000000000e+00  -1.3130799381908344e-06 -1.0903097325148438e-02 0.0000000000000000e+00  1.0988544453107582e-06 -7.7617098490304513e-03 0.0000000000000000e+00  0.0000000000000000e+00 0.0000000000000000e+00 0.0000000000000000e+00  8.6481904745454016e-06 -1.0797903882082849e-02 0.0000000000000000e+00  3.6193530333165322e-06 -1.1400432555518335e-02 0.0000000000000000e+00  -3.4955004312823523e-06 -1.0920334416451166e-02 0.0000000000000000e+00  -6.0829966762975462e-07 -7.7722167463347468e-03 0.0000000000000000e+00  0.0000000000000000e+00 0.0000000000000000e+00 0.0000000000000000e+00  1.1909028542803070e-05 -1.0798568223553729e-02 0.0000000000000000e+00  1.9325671300619180e-05 -1.1404261946016790e-02 0.0000000000000000e+00  2.6844305130456000e-05 -1.0916028599325129e-02 0.0000000000000000e+00  1.6980885352957197e-05 -7.7794076725791281e-03 0.0000000000000000e+00  0.0000000000000000e+00 0.0000000000000000e+00 0.0000000000000000e+00  1.2087386354130393e-05 -1.0824683837885566e-02 0.0000000000000000e+00  1.6791490473643903e-05 -1.1414289119225903e-02 0.0000000000000000e+00  2.2621779225199735e-05 -1.1001211916834229e-02 0.0000000000000000e+00  1.9524140847359920e-05 -7.7173269871223240e-03 0.0000000000000000e+00  0.0000000000000000e+00 0.0000000000000000e+00 0.0000000000000000e+00  3.1834416779966005e-06 -1.0819155954415976e-02 0.0000000000000000e+00  -1.4625080584089877e-06 -1.1407750050063909e-02 0.0000000000000000e+00  -8.7228242255686698e-06 -1.0990276710423517e-02 0.0000000000000000e+00  -9.3689597445198149e-06 -7.7093380739715767e-03 0.0000000000000000e+00  0.0000000000000000e+00 0.0000000000000000e+00 0.0000000000000000e+00  9.6769274071705548e-06 -1.0759829573400329e-02 0.0000000000000000e+00  3.5544416960026523e-06 -1.1363633080796808e-02 0.0000000000000000e+00  -3.3989137065376323e-06 -1.0884812719741160e-02 0.0000000000000000e+00  -3.8738249734154361e-07 -7.7324207571480971e-03 0.0000000000000000e+00  0.0000000000000000e+00 0.0000000000000000e+00 0.0000000000000000e+00  7.5733252363405772e-06 -1.0761511859490381e-02 0.0000000000000000e+00  2.1380721269886948e-06 -1.1358625630755450e-02 0.0000000000000000e+00  -6.1153582090883035e-06 -1.0943856764086745e-02 0.0000000000000000e+00  -7.6043136538596762e-06 -7.6578684432792206e-03 0.0000000000000000e+00  0.0000000000000000e+00 0.0000000000000000e+00 0.0000000000000000e+00  1.1058190004113600e-05 -1.0768695930641736e-02 0.0000000000000000e+00  8.6855843558041396e-06 -1.1373990370110332e-02 0.0000000000000000e+00  -9.0506842090637395e-06 -1.0890953097209683e-02 0.0000000000000000e+00  -1.8825351782603062e-06 -7.7512058779574278e-03 0.0000000000000000e+00  0.0000000000000000e+00 0.0000000000000000e+00 0.0000000000000000e+00  1.1559286526006230e-05 -1.0833012009761727e-02 0.0000000000000000e+00  2.0396930202052374e-05 -1.1400259168433072e-02 0.0000000000000000e+00  1.8413331649274939e-05 -1.0897912594620387e-02 0.0000000000000000e+00  1.5182564237002584e-05 -1.1463479623507362e-02 0.0000000000000000e+00  1.1656372231866691e-05 -7.7753149533411250e-03 0.0000000000000000e+00  0.0000000000000000e+00 0.0000000000000000e+00 0.0000000000000000e+00  1.0982316588616514e-05 -1.0793634527225461e-02 0.0000000000000000e+00  1.9836365990987792e-05 -1.1364447557889037e-02 0.0000000000000000e+00  2.6970630082229577e-05 -1.0870823779571503e-02 0.0000000000000000e+00  2.0470788946507793e-05 -1.1425357844327317e-02 0.0000000000000000e+00  1.5700375439472329e-05 -7.7525941445781357e-03 0.0000000000000000e+00  0.0000000000000000e+00 0.0000000000000000e+00 0.0000000000000000e+00  8.6584851955749956e-06 -1.0813203445186614e-02 0.0000000000000000e+00  5.2521157970477105e-06 -1.1380477827868184e-02 0.0000000000000000e+00  -1.0608632172051742e-05 -1.0895406766978942e-02 0.0000000000000000e+00  5.1859654106418387e-07 -1.1444215978825086e-02 0.0000000000000000e+00  -3.1614945629530443e-06 -7.7809054224384101e-03 0.0000000000000000e+00  0.0000000000000000e+00 0.0000000000000000e+00 0.0000000000000000e+00  2.0197920468013225e-05 -1.0837191043758165e-02 0.0000000000000000e+00  2.8987247239299677e-05 -1.1386407794286069e-02 0.0000000000000000e+00  2.6052081773966569e-05 -1.0957817580974871e-02 0.0000000000000000e+00  2.0397825073598643e-05 -1.1455453594766409e-02 0.0000000000000000e+00  2.1955747807140246e-05 -7.6897287026441337e-03 0.0000000000000000e+00  0.0000000000000000e+00 0.0000000000000000e+00 0.0000000000000000e+00  1.3787340122113789e-05 -1.1000312974931046e-02 0.0000000000000000e+00  2.1552882117840856e-05 -1.1426169040335448e-02 0.0000000000000000e+00  3.1086638651375735e-05 -1.0605315292617525e-02 0.0000000000000000e+00  -2.8766477348054426e-07 -1.1018690366481867e-02 0.0000000000000000e+00  -3.4048032769393871e-06 -1.1443703648300114e-02 0.0000000000000000e+00  -2.3742660185577840e-05 -1.0624549893792251e-02 0.0000000000000000e+00  1.7673311624957950e-05 -1.1404075920559344e-02 0.0000000000000000e+00  5.3987482109792055e-07 -7.3763429159256549e-03 0.0000000000000000e+00  9.4571189642715454e-06 -1.1149520724964558e-02 0.0000000000000000e+00  1.3788487472485166e-05 -1.1463354807814820e-02 0.0000000000000000e+00  1.2482646229072511e-05 -1.0694444404674042e-02 0.0000000000000000e+00  1.5311838339601525e-05 -1.1106423392492957e-02 0.0000000000000000e+00  1.5202145848478215e-05 -1.1456636944552659e-02 0.0000000000000000e+00  2.2384234815743772e-05 -1.0698712046322955e-02 0.0000000000000000e+00  1.4829344403114400e-05 -1.1499041540460889e-02 0.0000000000000000e+00  1.6933473501488688e-05 -1.1485530073958342e-02 0.0000000000000000e+00  1.5999898727607922e-05 -1.1499283300543606e-02 0.0000000000000000e+00  1.5409444356892178e-05 -1.1501238513325613e-02 0.0000000000000000e+00  1.4551835654796219e-05 -1.1490438433327895e-02 0.0000000000000000e+00  1.4227987778966846e-05 -1.1468442265243069e-02 0.0000000000000000e+00  1.2074472239617236e-05 -1.1451419872008851e-02 0.0000000000000000e+00  1.6099430739331210e-05 -1.1476431761005436e-02 0.0000000000000000e+00  1.5773164546144728e-05 -1.1478785832197901e-02 0.0000000000000000e+00  1.6502424325446937e-05 -1.1462740507986182e-02 0.0000000000000000e+00  7.7754415097197220e-06 -1.1494227288235358e-02 0.0000000000000000e+00  9.7156499315243479e-06 -1.1479705994391633e-02 0.0000000000000000e+00  6.0351215905077918e-06 -1.1494022900847507e-02 0.0000000000000000e+00  6.9667296827965790e-06 -1.1497070496216538e-02 0.0000000000000000e+00  5.3859295877589765e-06 -1.1486983418215614e-02 0.0000000000000000e+00  1.0861769976864712e-05 -1.1509886397714941e-02 0.0000000000000000e+00  1.1530639934767803e-05 -1.1498297233982884e-02 0.0000000000000000e+00  1.0535749354894207e-05 -1.1509328659643540e-02 0.0000000000000000e+00  1.1064377473646571e-05 -1.1511443787181929e-02 0.0000000000000000e+00  8.7949106819890232e-06 -1.1495079466731417e-02 0.0000000000000000e+00  1.3384467583729539e-05 -1.1037050204493443e-02 0.0000000000000000e+00  2.1420937694657929e-05 -1.1463829682426442e-02 0.0000000000000000e+00  3.0972568528902905e-05 -1.0642857732138977e-02 0.0000000000000000e+00  2.6243306944495786e-06 -1.1422339044879666e-02 0.0000000000000000e+00  2.5006739150139481e-06 -7.3867503933073338e-03 0.0000000000000000e+00  1.2103294697797570e-05 -1.1047718378883398e-02 0.0000000000000000e+00  2.0607946479591527e-05 -1.1472570249429249e-02 0.0000000000000000e+00  3.0607636674375947e-05 -1.0651873105644178e-02 0.0000000000000000e+00  9.5826950634720584e-06 -1.1137180730591932e-02 0.0000000000000000e+00  1.4731678032451756e-05 -1.1447201143777669e-02 0.0000000000000000e+00  8.5318680451214175e-06 -7.4772385709300990e-03 0.0000000000000000e+00  2.7126847302506300e-07 -1.1432676194300620e-02 0.0000000000000000e+00  1.8214486706270189e-06 -7.3954571622853200e-03 0.0000000000000000e+00  3.0412108274283740e-06 -1.1384750926473477e-02 0.0000000000000000e+00  2.8772586370228048e-06 -7.3527622580382606e-03 0.0000000000000000e+00  -1.1347888162926197e-05 -1.1072954291908809e-02 0.0000000000000000e+00  -4.3920345655236514e-06 -1.1446781485047661e-02 0.0000000000000000e+00  -2.6786477393402977e-05 -1.0636100982302724e-02 0.0000000000000000e+00  7.7162045874341168e-06 -1.1507987738813615e-02 0.0000000000000000e+00  1.0983304306872605e-05 -1.1512582442438878e-02 0.0000000000000000e+00  7.6177012819564711e-06 -1.1511205397046111e-02 0.0000000000000000e+00  1.6689384344651031e-05 -1.1479371790936549e-02 0.0000000000000000e+00  1.8151019486206224e-05 -1.1480067425185203e-02 0.0000000000000000e+00  1.5980332183279743e-05 -1.1480885326070632e-02 0.0000000000000000e+00  4.7926870678879299e-06 -1.1495891512130145e-02 0.0000000000000000e+00  2.9382809761444618e-06 -1.1496500268467727e-02 0.0000000000000000e+00  5.5710060344293019e-06 -1.1497629891754714e-02 0.0000000000000000e+00  1.3942197899718641e-05 -1.1499660487945606e-02 0.0000000000000000e+00  1.6477272680800166e-05 -1.1501143747030646e-02 0.0000000000000000e+00  1.4568106774288145e-05 -1.1501257985569389e-02 0.0000000000000000e+00  -4.1764186713521277e-06 -1.1104536403531179e-02 0.0000000000000000e+00  2.3268404752068199e-06 -1.1450898164388440e-02 0.0000000000000000e+00  -1.5888989689873556e-05 -1.0680158508481974e-02 0.0000000000000000e+00  1.0695526581800852e-05 -1.1450389661353581e-02 0.0000000000000000e+00  9.6625737718518639e-06 -1.1439401603809529e-02 0.0000000000000000e+00  9.0198777975873907e-06 -1.1492245105375210e-02 0.0000000000000000e+00  1.6800892728251334e-05 -1.1174855606310938e-02 0.0000000000000000e+00  9.8992659762825088e-06 -1.1412030942504743e-02 0.0000000000000000e+00  1.3231361306238304e-05 -1.1464009891293094e-02 0.0000000000000000e+00  9.3915236296640804e-06 -1.1442865966728680e-02 0.0000000000000000e+00  6.6172750976879872e-06 -1.1429762449089002e-02 0.0000000000000000e+00  6.5237183152007082e-06 -1