<?xml version="1.0"?>
<VTKFile type="UnstructuredGrid"  version="0.1"  >
<UnstructuredGrid>
<Piece  NumberOfPoints="2530" NumberOfCells="4544">
<Points>
<DataArray  type="Float64"  NumberOfComponents="3"  format="ascii">-0.005 0.02899999999991747 0  -0.005567606561449265 0.02972952735170602 0  -0.005567606561449265 0.02922952735170672 0  -0.006135213122898529 0.02945905470349596 0  -0.005 0.02949999999991678 0  -0.005 0.02999999999991609 0  -0.008999999999999999 0.02999999999991609 0  -0.008477881325601233 0.02929081058473642 0  -0.008999999999999999 0.02949999999991678 0  -0.008999999999999999 0.02899999999991747 0  -0.008477881325601233 0.02979081058473573 0  -0.007955762651202469 0.02958162116955536 0  -0.008999999999999999 0.05699999999999127 0  -0.008455575182696982 0.05771508614433647 0  -0.008455575182696982 0.05721508614433456 0  -0.007911150365393967 0.05743017228867785 0  -0.008999999999999999 0.05749999999999318 0  -0.008999999999999999 0.05799999999999508 0  -0.006562500000003323 0.04699999999996404 0  -0.007410380031513026 0.04710817040743875 0  -0.006801005031513838 0.04733733707410809 0  -0.007039510063024354 0.04767467414825214 0  -0.007171875000002511 0.0467708333332947 0  -0.007781250000001699 0.04654166666662536 0  -0.006562499999996975 0.007999999999982715 0  -0.007410380031513406 0.007891829592506899 0  -0.006801005031512716 0.007662662925842622 0  -0.007039510063028456 0.007325325851702528 0  -0.007171874999997664 0.008229166666646992 0  -0.007781249999998355 0.008458333333311269 0  -0.006562499999996577 0.01099999999997411 0  -0.007410380031513544 0.01110817040744999 0  -0.006801005031512696 0.01133733707411394 0  -0.007039510063028815 0.01167467414825377 0  -0.007171874999997425 0.01077083333331016 0  -0.007781249999998272 0.01054166666664622 0  -0.005 0.02399999999993442 0  -0.005590674212597458 0.02326230314954376 0  -0.005 0.02349999999993588 0  -0.005 0.02299999999993733 0  -0.005590674212597458 0.02376230314954231 0  -0.006181348425194916 0.0235246062991502 0  -0.005 0.02099999999994222 0  -0.005564630812322937 0.0217315610722294 0  -0.005564630812322937 0.02123156107223086 0  -0.006129261624645875 0.0214631221445195 0  -0.005 0.02149999999994076 0  -0.005 0.0219999999999393 0  -0.008999999999999999 0.01999999999994686 0  -0.008409325787402531 0.01926230314955595 0  -0.008999999999999999 0.01949999999994807 0  -0.008999999999999999 0.01899999999994928 0  -0.008409325787402531 0.01976230314955475 0  -0.007818651574805061 0.01952460629916263 0  -0.008999999999999999 0.02499999999992978 0  -0.008409325787402541 0.02573769685032071 0  -0.008409325787402541 0.02523769685032191 0  -0.007818651574805081 0.02547539370071405 0  -0.008999999999999999 0.02549999999992857 0  -0.008999999999999999 0.02599999999992736 0  -0.008999999999999999 0.01599999999995916 0  -0.008409325787402512 0.01526230314956849 0  -0.008999999999999999 0.01549999999996053 0  -0.008999999999999999 0.0149999999999619 0  -0.008409325787402512 0.01576230314956713 0  -0.007818651574805024 0.01552460629917509 0  -0.008999999999999999 0.01799999999995125 0  -0.008435915727826615 0.01725427993967504 0  -0.008999999999999999 0.01749999999995307 0  -0.008999999999999999 0.01699999999995488 0  -0.008435915727826615 0.01775427993967323 0  -0.007871831455653231 0.0175085598793952 0  -0.008999999999999999 0.02699999999992539 0  -0.008434239959724898 0.02774706184850321 0  -0.008434239959724898 0.02724706184850503 0  -0.007868479919449797 0.02749412369708466 0  -0.008999999999999999 0.02749999999992357 0  -0.008999999999999999 0.02799999999992175 0  -0.008999999999999999 0.01399999999996497 0  -0.008437765310767197 0.0132645357198448 0  -0.008999999999999999 0.01349999999996647 0  -0.008999999999999999 0.01299999999996796 0  -0.008437765310767197 0.0137645357198433 0  -0.007875530621534396 0.01352907143972163 0  -0.005 0.002999999999993196 0  -0.005590674212597853 0.003737696850384681 0  -0.005590674212597853 0.003237696850385873 0  -0.006181348425195706 0.00347539370077855 0  -0.005 0.003499999999992004 0  -0.005 0.003999999999990813 0  -0.005 0.004999999999989164 0  -0.005559084057905018 0.005728935712846076 0  -0.005559084057905018 0.005228935712846881 0  -0.006118168115810037 0.005457871425704597 0  -0.005 0.00549999999998836 0  -0.005 0.005999999999987554 0  -0.005 0.05299999999997999 0  -0.005590674212599118 0.05373769685037712 0  -0.005590674212599118 0.05323769685037585 0  -0.006181348425198237 0.05347539370077171 0  -0.005 0.05349999999998126 0  -0.005 0.05399999999998254 0  -0.008999999999999999 0.05199999999997907 0  -0.008409325787400907 0.05126230314958195 0  -0.008999999999999999 0.0514999999999778 0  -0.008999999999999999 0.05099999999997653 0  -0.008409325787400907 0.05176230314958322 0  -0.007818651574801817 0.05152460629918738 0  -0.005 0.03699999999993814 0  -0.005590674212599064 0.03626230314954104 0  -0.005 0.03649999999993686 0  -0.005 0.03599999999993558 0  -0.005590674212599064 0.03676230314954232 0  -0.006181348425198127 0.03652460629914649 0  -0.005 0.03799999999993905 0  -0.005590674212599059 0.03873769685033618 0  -0.005590674212599059 0.0382376968503349 0  -0.006181348425198119 0.03847539370073075 0  -0.005 0.03849999999994033 0  -0.005 0.0389999999999416 0  -0.008999999999999999 0.04499999999995907 0  -0.008409325787400921 0.04426230314956281 0  -0.008999999999999999 0.04449999999995852 0  -0.008999999999999999 0.04399999999995796 0  -0.008409325787400921 0.04476230314956336 0  -0.007818651574801844 0.04452460629916766 0  -0.005 0.05499999999998635 0  -0.005561924071815199 0.05574035198473451 0  -0.005561924071815199 0.05524035198473292 0  -0.006123848143630398 0.05548070396947949 0  -0.005 0.05549999999998795 0  -0.005 0.05599999999998954 0  -0.008999999999999999 0.04999999999997271 0  -0.008437330811979935 0.04925705943891855 0  -0.008999999999999999 0.04949999999997112 0  -0.008999999999999999 0.04899999999996952 0  -0.008437330811979935 0.04975705943892015 0  -0.00787466162395987 0.04951411887786759 0  -0.005 0.03499999999993177 0  -0.005554118008684467 0.03427588870688815 0  -0.005 0.03449999999993018 0  -0.005 0.03399999999992859 0  -0.005554118008684467 0.03477588870688975 0  -0.006108236017368934 0.03455177741384772 0  -0.005 0.03999999999994542 0  -0.005565787062146483 0.04074708348495108 0  -0.005565787062146483 0.0402470834849495 0  -0.006131574124292967 0.04049416696995358 0  -0.005 0.04049999999994701 0  -0.005 0.04099999999994859 0  -0.008999999999999999 0.04299999999995415 0  -0.008434212937853522 0.04225291651494782 0  -0.008999999999999999 0.04249999999995224 0  -0.008999999999999999 0.04199999999995033 0  -0.008434212937853522 0.04275291651494972 0  -0.007868425875707045 0.0425058330299453 0  -0.008249816699198017 0.05835749671693449 0  -0.008080483532295991 0.05789383450280617 0  -0.008624908349599008 0.05817874835846479 0  -0.005 0.05699999999999127 0  -0.005564814814815426 0.05763425925925437 0  -0.005564814814815426 0.05713425925925246 0  -0.006129629629630853 0.05726851851851365 0  -0.005 0.05749999999999318 0  -0.005 0.05799999999999508 0  -0.007812500000000279 0.05881250000000175 0  -0.007487215909092686 0.05955539772727215 0  -0.007906250000003019 0.05940625000000088 0  -0.008000000000005759 0.06 0  -0.007393465909089946 0.05896164772727303 0  -0.006974431818179612 0.0591107954545443 0  -0.008269129548671622 0.01109390078343537 0  -0.008025189774334947 0.0108177837250408 0  -0.008390624999999135 0.01027083333331175 0  -0.008634564774335812 0.01054695039170632 0  -0.008999999999999999 0.009999999999977279 0  -0.008269129548671525 0.007906099216521786 0  -0.00802518977433494 0.008182216274916528 0  -0.008390624999999177 0.008729166666645676 0  -0.008634564774335763 0.008453049608250935 0  -0.008999999999999999 0.008999999999980083 0  -0.008269129548669827 0.04709390078342088 0  -0.008025189774335762 0.04681778372502312 0  -0.008390625000000849 0.04627083333329277 0  -0.008634564774334913 0.04654695039169052 0  -0.008999999999999999 0.04599999999996016 0  -0.008273872863797757 0.03191632356681653 0  -0.008025109529492163 0.03218405924682916 0  -0.008388173097593283 0.03272589746338432 0  -0.007776346195186568 0.03245179492684179 0  -0.008636936431898879 0.03245816178337169 0  -0.008999999999999999 0.03299999999992685 0  -0.008017414784897241 0.03353452586113938 0  -0.007896880490041905 0.03299316039399058 0  -0.00850870739244862 0.03326726293053311 0  -0.007057671392325 0.03137590312127503 0  -0.007417008793755784 0.03191384902405841 0  -0.007160048097594804 0.03223839746338272 0  -0.00680071069616402 0.03170045156059935 0  -0.006543750000003041 0.03202499999992366 0  -0.007883928571428122 0.00949999999997868 0  -0.007832589285713197 0.01002083333331245 0  -0.00844196428571406 0.009749999999977979 0  -0.007832589285713239 0.008979166666644976 0  -0.00844196428571406 0.009249999999979382 0  -0.007040819314031163 0.03285586844587998 0  -0.007408582754608865 0.03265383168636089 0  -0.006792284657017102 0.03244043422290183 0  -0.005872353521460591 0.05810919245179558 0  -0.006000991575545722 0.05768885548515462 0  -0.005436176760730296 0.05805459622589533 0  -0.00786502184884123 0.04771008739533377 0  -0.007823135924421465 0.04712587703097956 0  -0.007452265955932792 0.04769238077179296 0  -0.007865021848844505 0.007289912604609198 0  -0.00782313592442143 0.007874122968960234 0  -0.007452265955936481 0.007307619228155863 0  -0.007865021848844829 0.01171008739534793 0  -0.007823135924421552 0.01112587703099708 0  -0.007452265955936822 0.01169238077180085 0  -0.008184288543895116 0.02249999999993832 0  -0.007988733012405148 0.02298711832054615 0  -0.007383909739089816 0.02298711832054615 0  -0.007793177480915178 0.02347423664115397 0  -0.007579465270579786 0.02249999999993833 0  -0.006974641997264455 0.02249999999993833 0  -0.007988733012405137 0.02201288167933051 0  -0.007383909739089808 0.02201288167933051 0  -0.007793177480915159 0.02152576335872269 0  -0.005819248789178329 0.02649
[...]
<PointData  Vectors="f_23"> 
<DataArray  type="Float64"  Name="f_23"  NumberOfComponents="3" format="ascii">0.0000000000000000e+00 0.0000000000000000e+00 0.0000000000000000e+00  1.0388118674602595e-09 -3.7561844357777872e-03 0.0000000000000000e+00  1.9778680823273769e-09 -5.4668737390091114e-03 0.0000000000000000e+00  1.1990297184092530e-09 -5.6444425260526523e-03 0.0000000000000000e+00  0.0000000000000000e+00 0.0000000000000000e+00 0.0000000000000000e+00  0.0000000000000000e+00 0.0000000000000000e+00 0.0000000000000000e+00  0.0000000000000000e+00 0.0000000000000000e+00 0.0000000000000000e+00  -1.6632128748410448e-09 -3.9321030558030073e-03 0.0000000000000000e+00  0.0000000000000000e+00 0.0000000000000000e+00 0.0000000000000000e+00  0.0000000000000000e+00 0.0000000000000000e+00 0.0000000000000000e+00  -6.6812924614116058e-11 -5.4173331409683168e-03 0.0000000000000000e+00  -2.1664423209223806e-09 -5.6210854850869841e-03 0.0000000000000000e+00  0.0000000000000000e+00 0.0000000000000000e+00 0.0000000000000000e+00  6.1073515436116611e-09 -3.7364638785884630e-03 0.0000000000000000e+00  -1.9574969152214741e-07 -5.4642240444222031e-03 0.0000000000000000e+00  -2.0621832708551033e-07 -5.6343923816410992e-03 0.0000000000000000e+00  0.0000000000000000e+00 0.0000000000000000e+00 0.0000000000000000e+00  0.0000000000000000e+00 0.0000000000000000e+00 0.0000000000000000e+00  -1.6563125524632730e-09 -5.8223056840844322e-03 0.0000000000000000e+00  -3.2793853609909605e-09 -5.8294567591973059e-03 0.0000000000000000e+00  3.8870731454010583e-09 -5.8308077260486200e-03 0.0000000000000000e+00  6.5872063202882673e-09 -5.8303868417153484e-03 0.0000000000000000e+00  -6.1467892998489810e-09 -5.8292922299816238e-03 0.0000000000000000e+00  -5.6990111440173233e-09 -5.8016320279058158e-03 0.0000000000000000e+00  1.4822597689678813e-09 -5.8227116571575423e-03 0.0000000000000000e+00  9.2000740833388046e-10 -5.8295849233009778e-03 0.0000000000000000e+00  -2.3491964166815812e-09 -5.8308350988131585e-03 0.0000000000000000e+00  -1.7999309135355667e-09 -5.8305684489989434e-03 0.0000000000000000e+00  4.6591819247287131e-09 -5.8294680206699380e-03 0.0000000000000000e+00  -6.5713597348692725e-10 -5.8002011171947466e-03 0.0000000000000000e+00  -1.6913497905761733e-09 -5.8227714946041970e-03 0.0000000000000000e+00  -5.5351920307449828e-09 -5.8295436922960256e-03 0.0000000000000000e+00  -3.0600866100411406e-09 -5.8308490943081359e-03 0.0000000000000000e+00  -3.5024926652426490e-09 -5.8303762020286889e-03 0.0000000000000000e+00  -3.4022239772517696e-09 -5.8298238841691706e-03 0.0000000000000000e+00  -7.5953322080367325e-09 -5.8043198733823929e-03 0.0000000000000000e+00  0.0000000000000000e+00 0.0000000000000000e+00 0.0000000000000000e+00  2.4028598905590829e-09 -3.8799658451408397e-03 0.0000000000000000e+00  0.0000000000000000e+00 0.0000000000000000e+00 0.0000000000000000e+00  0.0000000000000000e+00 0.0000000000000000e+00 0.0000000000000000e+00  4.9401816812873555e-09 -5.4724302899159137e-03 0.0000000000000000e+00  2.7597869611371671e-09 -5.6361586108429999e-03 0.0000000000000000e+00  0.0000000000000000e+00 0.0000000000000000e+00 0.0000000000000000e+00  3.4421394609886292e-09 -3.9277897666049610e-03 0.0000000000000000e+00  5.2362823012076898e-09 -5.4712713518507558e-03 0.0000000000000000e+00  6.7768080529465018e-09 -5.6465608148076728e-03 0.0000000000000000e+00  0.0000000000000000e+00 0.0000000000000000e+00 0.0000000000000000e+00  0.0000000000000000e+00 0.0000000000000000e+00 0.0000000000000000e+00  0.0000000000000000e+00 0.0000000000000000e+00 0.0000000000000000e+00  2.1282094841444902e-10 -3.8641526362602693e-03 0.0000000000000000e+00  0.0000000000000000e+00 0.0000000000000000e+00 0.0000000000000000e+00  0.0000000000000000e+00 0.0000000000000000e+00 0.0000000000000000e+00  1.8485627710160820e-09 -5.4719017009964271e-03 0.0000000000000000e+00  5.3368348959004846e-10 -5.6374335240303450e-03 0.0000000000000000e+00  0.0000000000000000e+00 0.0000000000000000e+00 0.0000000000000000e+00  4.0936173195167090e-10 -3.9069149205146229e-03 0.0000000000000000e+00  -2.2746697556368503e-09 -5.4699732465563842e-03 0.0000000000000000e+00  -2.9431143250568814e-09 -5.6401047284656610e-03 0.0000000000000000e+00  0.0000000000000000e+00 0.0000000000000000e+00 0.0000000000000000e+00  0.0000000000000000e+00 0.0000000000000000e+00 0.0000000000000000e+00  0.0000000000000000e+00 0.0000000000000000e+00 0.0000000000000000e+00  4.7564117974736145e-09 -3.8765388703863256e-03 0.0000000000000000e+00  0.0000000000000000e+00 0.0000000000000000e+00 0.0000000000000000e+00  0.0000000000000000e+00 0.0000000000000000e+00 0.0000000000000000e+00  5.4160253532129921e-09 -5.4619030593046885e-03 0.0000000000000000e+00  6.3040432627771515e-09 -5.6287302091614106e-03 0.0000000000000000e+00  0.0000000000000000e+00 0.0000000000000000e+00 0.0000000000000000e+00  3.6453453871193166e-10 -3.8785493065952759e-03 0.0000000000000000e+00  0.0000000000000000e+00 0.0000000000000000e+00 0.0000000000000000e+00  0.0000000000000000e+00 0.0000000000000000e+00 0.0000000000000000e+00  -1.7057744868431261e-09 -5.4639621737026991e-03 0.0000000000000000e+00  -1.0449260456619224e-09 -5.6393967659609905e-03 0.0000000000000000e+00  0.0000000000000000e+00 0.0000000000000000e+00 0.0000000000000000e+00  -2.8665595922232544e-09 -4.0430981381003785e-03 0.0000000000000000e+00  -1.8548111766738832e-09 -5.4294843360679270e-03 0.0000000000000000e+00  -5.5536628621596879e-09 -5.6308115427594636e-03 0.0000000000000000e+00  0.0000000000000000e+00 0.0000000000000000e+00 0.0000000000000000e+00  0.0000000000000000e+00 0.0000000000000000e+00 0.0000000000000000e+00  0.0000000000000000e+00 0.0000000000000000e+00 0.0000000000000000e+00  1.0189150489097200e-09 -3.7897039480133841e-03 0.0000000000000000e+00  0.0000000000000000e+00 0.0000000000000000e+00 0.0000000000000000e+00  0.0000000000000000e+00 0.0000000000000000e+00 0.0000000000000000e+00  4.3262007170286714e-09 -5.4580670276029707e-03 0.0000000000000000e+00  2.9575956255751408e-09 -5.6303321686973617e-03 0.0000000000000000e+00  0.0000000000000000e+00 0.0000000000000000e+00 0.0000000000000000e+00  -4.3638966289939881e-10 -3.9057929613983671e-03 0.0000000000000000e+00  1.5100250744411709e-09 -5.4740892244482635e-03 0.0000000000000000e+00  1.7823313327288658e-10 -5.6408443475317229e-03 0.0000000000000000e+00  0.0000000000000000e+00 0.0000000000000000e+00 0.0000000000000000e+00  0.0000000000000000e+00 0.0000000000000000e+00 0.0000000000000000e+00  0.0000000000000000e+00 0.0000000000000000e+00 0.0000000000000000e+00  -2.3815854313291630e-09 -3.7701634483564379e-03 0.0000000000000000e+00  -3.2380684799468127e-09 -5.4182697693317926e-03 0.0000000000000000e+00  -2.8755382767136044e-09 -5.6161134002610472e-03 0.0000000000000000e+00  0.0000000000000000e+00 0.0000000000000000e+00 0.0000000000000000e+00  0.0000000000000000e+00 0.0000000000000000e+00 0.0000000000000000e+00  0.0000000000000000e+00 0.0000000000000000e+00 0.0000000000000000e+00  5.8814569272223526e-09 -3.8800911019947690e-03 0.0000000000000000e+00  1.4380850298470882e-08 -5.4725326442775874e-03 0.0000000000000000e+00  1.4660149830076912e-08 -5.6367357022901847e-03 0.0000000000000000e+00  0.0000000000000000e+00 0.0000000000000000e+00 0.0000000000000000e+00  0.0000000000000000e+00 0.0000000000000000e+00 0.0000000000000000e+00  0.0000000000000000e+00 0.0000000000000000e+00 0.0000000000000000e+00  8.5412880752202937e-09 -3.9068794221254763e-03 0.0000000000000000e+00  0.0000000000000000e+00 0.0000000000000000e+00 0.0000000000000000e+00  0.0000000000000000e+00 0.0000000000000000e+00 0.0000000000000000e+00  1.8092449570674871e-08 -5.4699945313076148e-03 0.0000000000000000e+00  2.3435434955318229e-08 -5.6401644123714231e-03 0.0000000000000000e+00  0.0000000000000000e+00 0.0000000000000000e+00 0.0000000000000000e+00  2.1451995167100776e-09 -3.8535915716777654e-03 0.0000000000000000e+00  0.0000000000000000e+00 0.0000000000000000e+00 0.0000000000000000e+00  0.0000000000000000e+00 0.0000000000000000e+00 0.0000000000000000e+00  5.1422977282316143e-09 -5.4647519780788596e-03 0.0000000000000000e+00  1.0555382649839985e-09 -5.6308188137021778e-03 0.0000000000000000e+00  0.0000000000000000e+00 0.0000000000000000e+00 0.0000000000000000e+00  8.0656124059939060e-09 -3.8911426775457597e-03 0.0000000000000000e+00  1.2513647854321211e-08 -5.4273711594146727e-03 0.0000000000000000e+00  6.2494071638421125e-09 -5.6212233098961164e-03 0.0000000000000000e+00  0.0000000000000000e+00 0.0000000000000000e+00 0.0000000000000000e+00  0.0000000000000000e+00 0.0000000000000000e+00 0.0000000000000000e+00  0.0000000000000000e+00 0.0000000000000000e+00 0.0000000000000000e+00  -3.2714645482182998e-10 -3.8783752481209117e-03 0.0000000000000000e+00  0.0000000000000000e+00 0.0000000000000000e+00 0.0000000000000000e+00  0.0000000000000000e+00 0.0000000000000000e+00 0.0000000000000000e+00  -8.0871170693624188e-10 -5.4716053491463317e-03 0.0000000000000000e+00  -1.7733861573703441e-09 -5.6323825238204306e-03 0.0000000000000000e+00  0.0000000000000000e+00 0.0000000000000000e+00 0.0000000000000000e+00  1.8752765282054501e-08 -3.7702532614652859e-03 0.0000000000000000e+00  -3.2613934180829254e-08 -5.4583183395918540e-03 0.0000000000000000e+00  -2.3963452717441005e-09 -5.6332630277411734e-03 0.0000000000000000e+00  0.0000000000000000e+00 0.0000000000000000e+00 0.0000000000000000e+00  0.0000000000000000e+00 0.0000000000000000e+00 0.0000000000000000e+00  0.0000000000000000e+00 0.0000000000000000e+00 0.0000000000000000e+00  -2.7950664934291420e-09 -3.8517281134307852e-03 0.0000000000000000e+00  0.0000000000000000e+00 0.0000000000000000e+00 0.0000000000000000e+00  0.0000000000000000e+00 0.0000000000000000e+00 0.0000000000000000e+00  2.9209514820601569e-09 -5.4244640586438957e-03 0.0000000000000000e+00  6.1706802109728156e-09 -5.6227504564954544e-03 0.0000000000000000e+00  0.0000000000000000e+00 0.0000000000000000e+00 0.0000000000000000e+00  2.1592436677596707e-09 -3.6391632887497207e-03 0.0000000000000000e+00  0.0000000000000000e+00 0.0000000000000000e+00 0.0000000000000000e+00  0.0000000000000000e+00 0.0000000000000000e+00 0.0000000000000000e+00  1.4297082261044140e-09 -5.4510256413180091e-03 0.0000000000000000e+00  3.7582578269651416e-09 -5.6243225253948988e-03 0.0000000000000000e+00  0.0000000000000000e+00 0.0000000000000000e+00 0.0000000000000000e+00  2.8942361007521757e-09 -3.9833586050225522e-03 0.0000000000000000e+00  8.7302754363519008e-09 -5.4649313149936320e-03 0.0000000000000000e+00  4.3647603429705375e-09 -5.6472131778049321e-03 0.0000000000000000e+00  0.0000000000000000e+00 0.0000000000000000e+00 0.0000000000000000e+00  0.0000000000000000e+00 0.0000000000000000e+00 0.0000000000000000e+00  0.0000000000000000e+00 0.0000000000000000e+00 0.0000000000000000e+00  -2.3034041997565593e-09 -3.9829406255040322e-03 0.0000000000000000e+00  0.0000000000000000e+00 0.0000000000000000e+00 0.0000000000000000e+00  0.0000000000000000e+00 0.0000000000000000e+00 0.0000000000000000e+00  -9.5886117894861086e-10 -5.4642109688584576e-03 0.0000000000000000e+00  -1.4063153806441800e-09 -5.6444941598825715e-03 0.0000000000000000e+00  1.4058440935077499e-07 -5.4280874851894752e-03 0.0000000000000000e+00  1.7710146951788110e-08 -5.7181339826942318e-03 0.0000000000000000e+00  1.3630445769356304e-07 -3.7933290548456036e-03 0.0000000000000000e+00  0.0000000000000000e+00 0.0000000000000000e+00 0.0000000000000000e+00  2.7943492836379916e-07 -3.6704085990399739e-03 0.0000000000000000e+00  2.5510502936628604e-07 -5.4487035886815419e-03 0.0000000000000000e+00  3.6907187202631416e-07 -5.6107448760582008e-03 0.0000000000000000e+00  0.0000000000000000e+00 0.0000000000000000e+00 0.0000000000000000e+00  0.0000000000000000e+00 0.0000000000000000e+00 0.0000000000000000e+00  1.6483561743539571e-07 -5.8126396790822484e-03 0.0000000000000000e+00  9.0589364602396268e-08 -5.8299375842477477e-03 0.0000000000000000e+00  -2.4075149005697210e-08 -5.8021375918624919e-03 0.0000000000000000e+00  -4.2766083089306069e-08 -5.8032497148849359e-03 0.0000000000000000e+00  1.0742811046492699e-07 -5.8301338571662212e-03 0.0000000000000000e+00  4.2427080972096802e-07 -5.8261201795872441e-03 0.0000000000000000e+00  -8.0225849767784033e-09 -5.3685802489465539e-03 0.0000000000000000e+00  -1.2478965644597718e-08 -5.7391140405062529e-03 0.0000000000000000e+00  -1.1102772585324266e-08 -5.5353969743210576e-03 0.0000000000000000e+00  -5.5354727317043826e-09 -3.5072659978174939e-03 0.0000000000000000e+00  0.0000000000000000e+00 0.0000000000000000e+00 0.0000000000000000e+00  -1.7864978010664595e-09 -5.3592309135494284e-03 0.0000000000000000e+00  -3.9873589295485705e-09 -5.7426353696493453e-03 0.0000000000000000e+00  -9.1419523874140762e-09 -5.4985474479067450e-03 0.0000000000000000e+00  -5.1420942954959231e-09 -3.5594675269967147e-03 0.0000000000000000e+00  0.0000000000000000e+00 0.0000000000000000e+00 0.0000000000000000e+00  -9.5855239786166609e-09 -5.3599229617257655e-03 0.0000000000000000e+00  -1.0410703865692498e-08 -5.7424489117295181e-03 0.0000000000000000e+00  -5.9682700737513540e-09 -5.5009130344436611e-03 0.0000000000000000e+00  -5.2690856923195411e-09 -3.5561226545182006e-03 0.0000000000000000e+00  0.0000000000000000e+00 0.0000000000000000e+00 0.0000000000000000e+00  7.8581384390219615e-10 -5.3978191190008585e-03 0.0000000000000000e+00  1.0626137565926054e-09 -5.7445414402894244e-03 0.0000000000000000e+00  3.4849714682806595e-09 -5.5388053726090434e-03 0.0000000000000000e+00  2.4010212668224280e-09 -5.8041700002005063e-03 0.0000000000000000e+00  4.8609819078793338e-10 -3.5228108158581969e-03 0.0000000000000000e+00  0.0000000000000000e+00 0.0000000000000000e+00 0.0000000000000000e+00  8.1016232356799801e-09 -5.6081019616761128e-03 0.0000000000000000e+00  5.7460875471837904e-09 -5.7659480241710748e-03 0.0000000000000000e+00  4.7271855744425555e-09 -3.5040536779938772e-03 0.0000000000000000e+00  6.3237471995804488e-10 -5.8281308057000145e-03 0.0000000000000000e+00  -1.2156614250746089e-10 -5.8233095873989182e-03 0.0000000000000000e+00  1.7600418994029498e-09 -5.8296399913382512e-03 0.0000000000000000e+00  1.6221477509966841e-09 -5.8310225956273980e-03 0.0000000000000000e+00  4.2005046779528135e-09 -5.8201838883518249e-03 0.0000000000000000e+00  -1.1294350268880980e-08 -5.5277992329280093e-03 0.0000000000000000e+00  -1.3086869139568818e-08 -5.7575698804377528e-03 0.0000000000000000e+00  -1.1118265333870824e-08 -3.4772025181494296e-03 0.0000000000000000e+00  -5.9153307891679275e-09 -5.7890065734780222e-03 0.0000000000000000e+00  -1.7354683011536682e-08 -5.2712225317874456e-03 0.0000000000000000e+00  4.6153934594036638e-09 -5.8274938634673623e-03 0.0000000000000000e+00  2.5265872571169768e-09 -5.8304374668572525e-03 0.0000000000000000e+00  3.5536859829055412e-09 -5.8311488041356769e-03 0.0000000000000000e+00  5.4308183116744983e-07 -5.5071533323581235e-03 0.0000000000000000e+00  6.7646501995253181e-07 -5.6612174998557042e-03 0.0000000000000000e+00  2.6312827896249460e-07 -5.3382136256893272e-03 0.0000000000000000e+00  -5.9063133778858341e-09 -5.8026146845716461e-03 0.0000000000000000e+00  -8.0529881699678833e-09 -5.7968720375027229e-03 0.0000000000000000e+00  8.2686786049424325e-10 -5.8295867517878033e-03 0.0000000000000000e+00  1.1118449145060063e-09 -5.8051210924368463e-03 0.0000000000000000e+00  8.8544606750424539e-10 -5.7969060255956715e-03 0.0000000000000000e+00  2.3673343271149992e-09 -5.8299514930389342e-03 0.0000000000000000e+00  -5.3790540216221128e-09 -5.8027876954904736e-03 0.0000000000000000e+00  -7.0411205618931403e-09 -5.7986245342942907e-03 0.0000000000000000e+00  -5.0120833885990504e-09 -5.8296048904965068e-03 0.0000000000000000e+00  6.2242412948406396e-09 -5.5755284107411630e-03 0.0000000000000000e+00  3.3682264815358958e-09 -5.7972906321978818e-03 0.0000000000000000e+00  4.7499858705548616e-09 -5.8131437018022975e-03 0.0000000000000000e+00  -2.3806741293738823e-10 -5.8160019334247918e-03 0.0000000000000000e+00  7.1100940451065830e-09 -5.8123598461251712e-03 0.0000000000000000e+00  7.9971882845962865e-09 -5.8121919169441347e-03 0.0000000000000000e+00  9.3160312678542466e-09 -5.7973252966537310e-03 0.0000000000000000e+00  9.5043775117350226e-09 -5.8132991379340323e-03 0.0000000000000000e+00  8.4399329087469220e-09 -5.8161046043020068e-03 0.0000000000000000e+00  5.0993623081688167e-09 -5.5846488006319386e-03 0.0000000000000000e+00  3.5322568628594873e-09 -5.8025954354185153e-03 0.0000000000000000e+00  9.6711530313292012e-10 -5.8114603203962105e-03 0.0000000000000000e+00  5.7859660882445955e-10 -5.8002098033060577e-03 0.0000000000000000e+00  3.9539948699060859e-09 -5.8128027534276013e-03 0.0000000000000000e+00  -2.8999487939334747e-10 -5.8147824945499298e-03 0.0000000000000000e+00  -2.9644325773704977e-09 -5.5847399381616465e-03 0.0000000000000000e+00  -6.3178141969530424e-09 -5.8026700371309782e-03 0.0000000000000000e+00  -4.2603609340216175e-09 -5.8115940002046321e-03 0.0000000000000000e+00  -3.5619683608683767e-09 -5.8006016782418462e-03 0.0000000000000000e+00  -3.1867813119256271e-09 -5.8128598048663455e-03 0.0000000000000000e+00  -2.8126105007569989e-09 -5.8151363445238819e-03 0.0000000000000000e+00  9.3626707270262109e-09 -5.8024909776115590e-03 0.0000000000000000e+00  4.8405927960528068e-09 -5.8115212019820874e-03 0.0000000000000000e+00  7.2161033493795092e-09 -5.7999608214228107e-03 0.0000000000000000e+00  -1.1049005704069541e-09 -5.8025228727905864e-03 0.0000000000000000e+00  -1.5947792907469330e-09 -5.8115445196019119e-03 0.0000000000000000e+00  2.6162617267594014e-10 -5.7999908761883637e-03 0.0000000000000000e+00  4.9878628346600711e-09 -5.5885167801422676e-03 0.0000000000000000e+00  6.4826650491095161e-09 -5.8030266968318329e-03 0.0000000000000000e+00  6.3518680771624769e-09 -5.8117772864151387e-03 0.0000000000000000e+00  7.0563316572198453e-09 -5.8006000722366276e-03 0.0000000000000000e+00  6.0955778859061840e-09 -5.8131490640737681e-03 0.0000000000000000e+00  5.6271854879558219e-09 -5.8150143524529352e-03 0.0000000000000000e+00  5.5710065594033018e-09 -5.8028970453546675e-03 0.0000000000000000e+00  5.2116268914716190e-09 -5.8114564165901638e-03 0.0000000000000000e+00  4.1901293637618780e-09 -5.7991039977529366e-03 0.0000000000000000e+00  -4.4818638570230071e-09 -5.5881654525456277e-03 0.0000000000000000e+00  -3.8827577148347676e-09 -5.8021126151075707e-03 0.0000000000000000e+00  -3.3786446336096147e-09 -5.8112921919453815e-03 0.0000000000000000e+00  -2.5003404846271488e-09 -5.7913484669640282e-03 0.0000000000000000e+00  -5.0921803691560345e-09 -5.8131014892855168e-03 0.0000000000000000e+00  -3.4498254164787568e-09 -5.8147997013946332e-03 0.0000000000000000e+00  -6.9832357990740171e-09 -5.8029370780752938e-03 0.0000000000000000e+00  -5.5068413849695319e-09 -5.8114540062745744e-03 0.0000000000000000e+00  -6.4418641252601814e-09 -5.7999730877326301e-03 0.0000000000000000e+00  1.2005176498552688e-08 -5.5845939427201828e-03 0.0000000000000000e+00  1.8549974442042546e-08 -5.8024697587167676e-03 0.0000000000000000e+00  1.9934779207202915e-08 -5.8114488143033377e-03 0.0000000000000000e+00  2.2288359972100472e-08 -5.7998621065548225e-03 0.0000000000000000e+00  1.6664086712096678e-08 -5.8127973474651571e-03 0.0000000000000000e+00  1.6433017394416529e-08 -5.8147525742117860e-03 0.0000000000000000e+00  9.2679515596608005e-09 -5.6059112662124192e-03 0.0000000000000000e+00  7.5665202148449176e-09 -5.7782743256336172e-03 0.0000000000000000e+00  4.8174518315636417e-09 -5.8148228868868503e-03 0.0000000000000000e+00  2.7143052620716613e-09 -5.8036208289911620e-03 0.0000000000000000e+00  8.1416410746329869e-09 -5.8127335308702710e-03 0.0000000000000000e+00  4.6762385124962356e-09 -5.8158254030686732e-03 0.0000000000000000e+00  -9.2834607662968262e-09 -5.5846319506969271e-03 0.0000000000000000e+00  -1.1898842377309455e-08 -5.8024899947956817e-03 0.0000000000000000e+00  -7.9381688579336164e-09 -5.8114304591199324e-03 0.0000000000000000e+00  -8.