<?xml version="1.0"?>
<VTKFile type="UnstructuredGrid"  version="0.1"  >
<UnstructuredGrid>
<Piece  NumberOfPoints="2690" NumberOfCells="4864">
<Points>
<DataArray  type="Float64"  NumberOfComponents="3"  format="ascii">-5.101091615395744 22.02206795732026 0  -5.686340679596117 21.28475869112373 0  -5.099126667775304 21.52387119048131 0  -5.096727613464703 21.02214978271519 0  -5.688368048730791 21.78517425884738 0  -6.275559944722885 21.54472279735063 0  -9 21.99999999996945 0  -8.411638250423959 21.26711174171544 0  -9 21.49999999997139 0  -9 20.99999999997333 0  -8.411997383152684 21.76708627811338 0  -7.823659101372951 21.53411377363817 0  -9 32.9999999999446 0  -8.419466756794513 32.26703887061135 0  -9 32.49999999994358 0  -9 31.99999999994255 0  -8.419825057451897 32.76704614756804 0  -7.839311706847452 32.53403856720634 0  -5.153001819252932 33.02382890988931 0  -5.650169133932829 32.31994462811392 0  -5.150964097144213 32.52700912559149 0  -5.148361220988557 32.02305693937259 0  -5.652276822558583 32.82056175717415 0  -6.151461750987002 32.61386090823871 0  -5.254295773480767 54.02266915273891 0  -5.822034979047538 54.75910043975374 0  -5.820027579255098 54.26005466969426 0  -6.385379703253975 54.49412297596858 0  -5.256714158671389 54.52439208636191 0  -5.258732684692273 55.02286028766723 0  -9 54.99999999998974 0  -8.503779883328946 54.29999804029377 0  -9 54.49999999998872 0  -9 53.99999999998769 0  -8.504101422505743 54.79990056283924 0  -8.007949388812518 54.59983319730436 0  -9 39.99999999995897 0  -8.425555393384103 40.74196213072405 0  -8.425196816630041 40.24196776729514 0  -7.850737018459889 40.48386761918628 0  -9 40.49999999996 0  -9 40.99999999996102 0  -5.191103737625111 41.02102064125708 0  -5.737324242359792 40.29048357788317 0  -5.189077457221476 40.52447502681915 0  -5.186693074431168 40.02369831023033 0  -5.73935177622127 40.79012755530422 0  -6.287585752457034 40.55535564084751 0  -9 55.99999999999179 0  -8.460276504837601 56.74745139312558 0  -8.459959707182684 56.24738927249226 0  -7.920250880829389 56.49477888691617 0  -9 56.49999999999282 0  -9 56.99999999999384 0  -5.264038775372669 56.02161332352234 0  -5.807087801246873 56.76503606345044 0  -5.805124988832585 56.26494019736324 0  -6.345755865312523 56.50552483109241 0  -5.266606816736739 56.52512296173462 0  -5.268621428354892 57.02294516644482 0  -7.515999482998158 43.01250587426407 0  -6.711062522749173 43.12771323838251 0  -7.290190245710225 43.35196756131263 0  -7.06456240100897 43.69144478689689 0  -6.936679791834328 42.78811279202459 0  -6.357049239757934 42.56373122938528 0  -6.702128664677797 49.02365845296733 0  -7.501225476883285 48.90711948892605 0  -6.926042764245796 48.68403240134734 0  -7.15017882328301 48.34433223836573 0  -7.277112776829152 49.2467006784122 0  -7.851749515857734 49.46991119875744 0  -6.693448780244844 46.02221430862563 0  -7.495566331474106 45.90617956091214 0  -6.918258305525264 45.68231911295356 0  -7.143270091278347 45.34253886620043 0  -7.270566462307352 46.24594114458039 0  -7.847366657978641 46.4695856187388 0  -6.581591299970956 7.022960923048319 0  -7.422621878244354 6.906775672883354 0  -6.817355095594552 6.683321994733451 0  -7.053322522914402 6.343687812433804 0  -7.186666723399431 7.246404970667528 0  -7.791426815513868 7.46983417246495 0  -7.49183936017403 30.01236609320278 0  -6.673782815037238 30.12739690512162 0  -7.262357301012311 30.35148471602121 0  -7.03306465252066 30.69052438383278 0  -6.903075408598235 29.78820343275866 0  -6.313987586759029 29.56416766876425 0  -6.573488351142269 4.021850531630382 0  -7.41775808122766 4.122428637431913 0  -6.811693552118943 4.357242193371807 0  -7.049742962011496 4.692563092295991 0  -7.179719379058574 3.787064776055618 0  -7.786222025946594 3.552420277381138 0  -6.589939076744303 10.02314966701993 0  -7.428447472384408 10.12329769836787 0  -6.826570498885962 10.35825275200351 0  -7.063035419162511 10.69335759777263 0  -7.191965072177435 9.788217037120916 0  -7.794320164768574 9.55325513020083 0  -6.598310733762804 13.02336549631583 0  -7.433509245979189 12.90710117085069 0  -6.832424052205988 12.68373422865461 0  -7.066739697408893 12.34410957364349 0  -7.199196231320989 13.24675830498713 0  -7.799777651678735 13.47008792832305 0  -6.606748525095522 16.02372198611285 0  -7.439030167801821 15.90720773150056 0  -6.840032912562825 15.68411783151393 0  -7.073526995258869 15.34445531208359 0  -7.205555933786361 16.24678466254183 0  -7.804032576486307 16.46998058670072 0  -6.615521463641943 19.02125169191229 0  -7.445162761871076 19.12180840388558 0  -6.849754896180885 19.35596673505184 0  -7.083777503086623 19.69081672064359 0  -7.21111971019497 18.78688764784236 0  -7.807072383787788 18.55246312983176 0  -6.63854503735999 27.02046017927679 0  -7.460182057995122 27.12131394193206 0  -6.870475905025076 27.35562573852327 0  -7.102228461641847 27.69082401909922 0  -7.228429667438102 26.78598823412468 0  -7.818629674096711 26.5517030379144 0  -8.285105975445818 19.10016076208938 0  -8.046171386290151 18.82627688323594 0  -8.403335602245095 18.27629364348716 0  -8.64230921995177 18.5501779614147 0  -9 17.99999999998495 0  -8.29201616383288 27.09991167396687 0  -8.055400891788667 26.82581026360349 0  -8.409122382746499 26.2758307798648 0  -8.645774456541696 26.54995153376082 0  -9 25.99999999995395 0  -8.282314091109942 15.91313768493208 0  -8.043093196583987 16.19157172864879 0  -8.402210832172431 16.73494071138105 0  -8.641392695557878 16.45653277084947 0  -9 16.99999999998883 0  -5.845037513195085 30.12093117037387 0  -6.079428316680479 29.84252694469752 0  -5.724399012631019 29.29836855297308 0  -5.490010467903625 29.57781732319106 0  -5.133760024398196 29.02208198973396 0  -8.279771186399033 12.91312712309467 0  -8.039696270171692 13.19160291387877 0  -8.400076371379198 13.73505362307389 0  -8.640115762280445 13.45657429187824 0  -9 13.99999999999401 0  -8.277420821928397 10.10085897679814 0  -8.035946133429769 9.827057907047063 0  -8.396970323638707 9.276624053411959 0  -8.638483750833201 9.550425140370912 0  -9 8.99999999999857 0  -8.272523034916039 4.100447481152529 0  -8.029440185000162 3.826452145529587 0  -8.392959710180167 3.276178172992579 0  -8.636063073679738 3.550178050239555 0  -9 2.999999999998668 0  -8.274768891129012 6.912964269635626 0  -8.033020041686159 7.191394860889734 0  -8.395900119084823 7.734923528687749 0  -8.637612344699361 7.456495586167605 0  -9 7.999999999999485 0  -8.308306179716126 45.91268942830758 0  -8.077757464760719 46.19111131294905 0  -8.423875194681145 46.73483399168103 0  -8.654386034286931 46.45641449582629 0  -9 46.99999999997333 0  -8.310910992151282 48.9130846459925 0  -8.08124684013862 49.19151085692767 0  -8.426076150070539 49.73490341429279 0  -8.655699963394818 49.45650960475628 0  -9 49.99999999997949 0  -5.895650172960774 43.12120442778832 0  -6.126263544828393 42.84246595817345 0  -5.776918668960461 42.29762646686026 0  -5.546319221625066 42.57753463324203 0  -5.195685710047389 42.02116358683575 0  -5.816662083232642 23.94361232459577 0  -6.059486812803907 24.2089533311803 0  -5.708758608671219 24.75336793973129 0  -6.302140936023979 24.47437019890863 0  -5.466087937036723 24.48907265737616 0  -5.115300116218934 25.02188265608122 0  -8.318237381211762 52.08986380307714 0  -8.084346651801667 51.82438417564097 0  -8.424935110820003 51.27954651669668 0  -7.850289620318968 51.55896770313282 0  -8.658872120289717 51.5450249006708 0  -9 50.99999999998153 0  -5.871550585109926 38.11067262777176 0  -6.108279218288206 37.84040555183964 0  -5.759008811241452 37.30092345424585 0  -6.345172226882258 37.57020111251271 0  -5.522280727510003 37.57246076183816 0  -5.171699147283613 37.02017512470663 0  -5.859195037491498 34.94340167824959 0  -6.098809446571539 35.20858307767649 0  -5.752828366091792 35.75271729441798 0  -6.338253774575555 35.47383487528869 0  -5.513353629922759 35.48874351979234 0  -5.167348525392347 36.02082017552495 0  -7.949781613677821 50.51045525123365 0  -7.899998266662912 51.03473991358097 0  -8.475062368646995 50.75516896535883 0  -6.238958188272692 36.5217824213943 0  -6.29208923582752 37.04585534520408 0  -5.705499494763568 36.77487101319393 0  -6.288571302148435 35.99765607583015 0  -5.703436702156823 36.27460362187092 0  -6.064969980694575 25.28393173996398 0  -6.183510502096389 24.87919512660578 0  -5.590381050219833 25.15694966189673 0  -8.056427479660339 25.75375187935984 0  -7.937471459731963 26.15272660275403 0  -8.52828442161476 25.87687971731027 0  -7.024596937444627 34.39201387082762 0  -6.681192067274965 34.93305693760815 0  -6.928546586530326 35.25542749596829 0  -7.271982354570746 34.71457124770349 0  -7.51916669967275 35.03708868910281 0  -7.177671991422718 52.6401683496449 0  -7.513733833022729 52.0996888278892 0  -7.271723632419111 51.7776614811165 0  -6.93568512413361 52.31821181532537 0  -6.693486410325053 51.99631771549988 0  -7.035022647267395 38.64006377729851 0  -6.690331591687556 38.10526127566895 0  -6.93503940879627 37.77856513555809 0  -7.279709627500673 38.31356731916114 0  -7.524595139561665 37.98702045182118 0  -6.9978696671213 23.39213162397697 0  -6.649776637089142 23.93333350664589 0  -6.900451355192029 24.25580595938341 0  -7.248579278746377 23.71476128450733 0  -7.49909052202686 24.03732888781157 0  -7.906172721016943 17.51035240807431 0  -7.8565866419284 18.03144116900704 0  -8.453253473664603 17.75511635421575 0  -7.855132799134311 16.99017856475916 0  -8.452919570826614 17.25520955825766 0  -7.894575748546411 8.510586368550735 0  -7.844418847816297 9.031922911723758 0  -8.447444664812371 8.755295445943405 0  -7.934490451374071 2.424795982176008 0  -7.860294221662866 2.988580392108748 0  -8.467392099463783 2.71242869698753 0  -7.843032782387386 7.990216055484835 0  -8.447126750465074 8.255285759771356 0  -7.900797942327324 49.99019636290961 0  -8.474717657974342 50.2552630306449 0  -6.171050786565909 41.61447995557909 0  -6.264109092073381 42.
[...]
<PointData  Vectors="f_27"> 
<DataArray  type="Float64"  Name="f_27"  NumberOfComponents="3" format="ascii">0.0000000000000000e+00 0.0000000000000000e+00 0.0000000000000000e+00  7.0788993465798941e-06 -7.7509744827949732e-03 0.0000000000000000e+00  0.0000000000000000e+00 0.0000000000000000e+00 0.0000000000000000e+00  0.0000000000000000e+00 0.0000000000000000e+00 0.0000000000000000e+00  3.6011842664641651e-07 -1.0868589691177965e-02 0.0000000000000000e+00  1.5453003277806340e-05 -1.1174782907777819e-02 0.0000000000000000e+00  0.0000000000000000e+00 0.0000000000000000e+00 0.0000000000000000e+00  3.3376320567980852e-05 -7.8894706900238861e-03 0.0000000000000000e+00  0.0000000000000000e+00 0.0000000000000000e+00 0.0000000000000000e+00  0.0000000000000000e+00 0.0000000000000000e+00 0.0000000000000000e+00  6.6027831611838593e-05 -1.0830571508982419e-02 0.0000000000000000e+00  5.2222022439917684e-05 -1.1217394223881034e-02 0.0000000000000000e+00  0.0000000000000000e+00 0.0000000000000000e+00 0.0000000000000000e+00  3.4222931392888655e-05 -7.6611852202471903e-03 0.0000000000000000e+00  0.0000000000000000e+00 0.0000000000000000e+00 0.0000000000000000e+00  0.0000000000000000e+00 0.0000000000000000e+00 0.0000000000000000e+00  6.7189503047638237e-05 -1.0729936158877271e-02 0.0000000000000000e+00  5.6225806638625867e-05 -1.1117807503942999e-02 0.0000000000000000e+00  0.0000000000000000e+00 0.0000000000000000e+00 0.0000000000000000e+00  1.4736920684269501e-05 -8.0570856573926562e-03 0.0000000000000000e+00  0.0000000000000000e+00 0.0000000000000000e+00 0.0000000000000000e+00  0.0000000000000000e+00 0.0000000000000000e+00 0.0000000000000000e+00  2.2700581694446903e-05 -1.0788496147166168e-02 0.0000000000000000e+00  3.1560743508623188e-05 -1.1156323563528595e-02 0.0000000000000000e+00  0.0000000000000000e+00 0.0000000000000000e+00 0.0000000000000000e+00  2.4079400804510459e-05 -7.8575215516341265e-03 0.0000000000000000e+00  5.1504609981815072e-05 -1.0542081197763481e-02 0.0000000000000000e+00  4.5256114326923981e-05 -1.0914126170250857e-02 0.0000000000000000e+00  0.0000000000000000e+00 0.0000000000000000e+00 0.0000000000000000e+00  0.0000000000000000e+00 0.0000000000000000e+00 0.0000000000000000e+00  0.0000000000000000e+00 0.0000000000000000e+00 0.0000000000000000e+00  3.3291331081098955e-05 -7.8444192090839169e-03 0.0000000000000000e+00  0.0000000000000000e+00 0.0000000000000000e+00 0.0000000000000000e+00  0.0000000000000000e+00 0.0000000000000000e+00 0.0000000000000000e+00  4.7582080018936287e-05 -1.0656788668541113e-02 0.0000000000000000e+00  4.7856365185589583e-05 -1.0952197570039568e-02 0.0000000000000000e+00  0.0000000000000000e+00 0.0000000000000000e+00 0.0000000000000000e+00  2.9725102298447820e-05 -7.5823965540605179e-03 0.0000000000000000e+00  2.5841328554418341e-05 -1.0671224209226039e-02 0.0000000000000000e+00  3.6891740410026126e-05 -1.1050352424413141e-02 0.0000000000000000e+00  0.0000000000000000e+00 0.0000000000000000e+00 0.0000000000000000e+00  0.0000000000000000e+00 0.0000000000000000e+00 0.0000000000000000e+00  0.0000000000000000e+00 0.0000000000000000e+00 0.0000000000000000e+00  2.2132859188382544e-05 -7.7168796630705137e-03 0.0000000000000000e+00  0.0000000000000000e+00 0.0000000000000000e+00 0.0000000000000000e+00  0.0000000000000000e+00 0.0000000000000000e+00 0.0000000000000000e+00  1.9217973019188252e-05 -1.0800970022757409e-02 0.0000000000000000e+00  2.9940734928754909e-05 -1.1075336586712285e-02 0.0000000000000000e+00  0.0000000000000000e+00 0.0000000000000000e+00 0.0000000000000000e+00  4.4145274633938365e-05 -8.1364975349818361e-03 0.0000000000000000e+00  3.5438351462898243e-05 -1.0580146323301494e-02 0.0000000000000000e+00  4.9521181228897085e-05 -1.0926979576101250e-02 0.0000000000000000e+00  0.0000000000000000e+00 0.0000000000000000e+00 0.0000000000000000e+00  0.0000000000000000e+00 0.0000000000000000e+00 0.0000000000000000e+00  0.0000000000000000e+00 0.0000000000000000e+00 0.0000000000000000e+00  2.1488035100959755e-05 -8.1454592077473513e-03 0.0000000000000000e+00  4.4193773070033189e-05 -1.0580845730394296e-02 0.0000000000000000e+00  3.7328398474545500e-05 -1.0922067681125230e-02 0.0000000000000000e+00  0.0000000000000000e+00 0.0000000000000000e+00 0.0000000000000000e+00  0.0000000000000000e+00 0.0000000000000000e+00 0.0000000000000000e+00  6.6842827161950907e-05 -1.1352459302902318e-02 0.0000000000000000e+00  7.5130262843880701e-05 -1.1362664812389499e-02 0.0000000000000000e+00  6.6660626757072066e-05 -1.1361693374070064e-02 0.0000000000000000e+00  6.3429088228689063e-05 -1.1360767890743119e-02 0.0000000000000000e+00  7.0834434800555335e-05 -1.1361525953119610e-02 0.0000000000000000e+00  6.8564529360876669e-05 -1.1325309719500526e-02 0.0000000000000000e+00  8.6229883867442687e-05 -1.1287686227634999e-02 0.0000000000000000e+00  8.0341506311303683e-05 -1.1287312182608708e-02 0.0000000000000000e+00  8.7092612901532761e-05 -1.1302964438665542e-02 0.0000000000000000e+00  8.4728728096686626e-05 -1.1300402511094671e-02 0.0000000000000000e+00  7.9557452968636515e-05 -1.1295736853742145e-02 0.0000000000000000e+00  7.0371218362666620e-05 -1.1252763903797354e-02 0.0000000000000000e+00  7.5631675431715693e-05 -1.1322428424170980e-02 0.0000000000000000e+00  6.6186223973629011e-05 -1.1327651547280741e-02 0.0000000000000000e+00  6.8994890776810370e-05 -1.1333780936185568e-02 0.0000000000000000e+00  6.1151529357177272e-05 -1.1338863113016445e-02 0.0000000000000000e+00  7.1288837835826310e-05 -1.1324914548176860e-02 0.0000000000000000e+00  6.4058221591796780e-05 -1.1276599340113807e-02 0.0000000000000000e+00  7.2029383809340427e-05 -1.1642214109145749e-02 0.0000000000000000e+00  6.4795139823195115e-05 -1.1652000093052542e-02 0.0000000000000000e+00  6.8791793359653810e-05 -1.1656416033061889e-02 0.0000000000000000e+00  6.8430272759148106e-05 -1.1660347367218203e-02 0.0000000000000000e+00  6.6104515613137746e-05 -1.1651265881214519e-02 0.0000000000000000e+00  5.8146207354877397e-05 -1.1609188356035055e-02 0.0000000000000000e+00  6.2288192983143921e-05 -1.1458132340256590e-02 0.0000000000000000e+00  7.4720139957533453e-05 -1.1450642622809809e-02 0.0000000000000000e+00  6.3413820774140667e-05 -1.1469042347081338e-02 0.0000000000000000e+00  6.1104875433440342e-05 -1.1459111148862009e-02 0.0000000000000000e+00  6.8988889556665875e-05 -1.1462638899974823e-02 0.0000000000000000e+00  6.9181932743001408e-05 -1.1418339513406128e-02 0.0000000000000000e+00  7.8566386871430134e-05 -1.1678505331522714e-02 0.0000000000000000e+00  7.0857635334775772e-05 -1.1672311028746725e-02 0.0000000000000000e+00  7.4568129365883506e-05 -1.1681064378848780e-02 0.0000000000000000e+00  7.1567979546286167e-05 -1.1676785218495101e-02 0.0000000000000000e+00  7.2562008884026274e-05 -1.1675916212072616e-02 0.0000000000000000e+00  7.0846029507648270e-05 -1.1632210229049133e-02 0.0000000000000000e+00  7.5647245472775057e-05 -1.1627865578105476e-02 0.0000000000000000e+00  7.0092797006899964e-05 -1.1627971234595965e-02 0.0000000000000000e+00  7.0572808911551228e-05 -1.1632145633294880e-02 0.0000000000000000e+00  6.8911717844944028e-05 -1.1628795080389347e-02 0.0000000000000000e+00  7.4857095748940723e-05 -1.1632160240221312e-02 0.0000000000000000e+00  7.6473204281430365e-05 -1.1587141352796313e-02 0.0000000000000000e+00  7.0632915274852095e-05 -1.1595214406830629e-02 0.0000000000000000e+00  6.5197230132484947e-05 -1.1606028943093732e-02 0.0000000000000000e+00  6.8129784982041077e-05 -1.1609799299367585e-02 0.0000000000000000e+00  6.8411959790211168e-05 -1.1613872782290235e-02 0.0000000000000000e+00  6.5583929197003560e-05 -1.1603623738737886e-02 0.0000000000000000e+00  5.9207820103870662e-05 -1.1558681656902292e-02 0.0000000000000000e+00  8.1255330894336027e-05 -1.1572892387212154e-02 0.0000000000000000e+00  7.5152981817247716e-05 -1.1571894487070460e-02 0.0000000000000000e+00  8.1778179335284119e-05 -1.1587054854161831e-02 0.0000000000000000e+00  7.9136955295652217e-05 -1.1583638521638661e-02 0.0000000000000000e+00  7.4354279364471755e-05 -1.1581701994814057e-02 0.0000000000000000e+00  6.5348202953513775e-05 -1.1538947963081024e-02 0.0000000000000000e+00  9.0066540893619392e-05 -1.1539897165889035e-02 0.0000000000000000e+00  7.2658458888667809e-05 -1.1545914035848431e-02 0.0000000000000000e+00  8.2406911808356463e-05 -1.1556694203706820e-02 0.0000000000000000e+00  6.9182158681878621e-05 -1.1547323351631682e-02 0.0000000000000000e+00  8.1108664773536278e-05 -1.1557805207078777e-02 0.0000000000000000e+00  7.8781248733458286e-05 -1.1517080969557647e-02 0.0000000000000000e+00  8.6150598162856032e-05 -1.1484065290238854e-02 0.0000000000000000e+00  7.2697389058543139e-05 -1.1492079990611281e-02 0.0000000000000000e+00  8.0933332105296489e-05 -1.1494987687913098e-02 0.0000000000000000e+00  7.0643518780850805e-05 -1.1488028636775165e-02 0.0000000000000000e+00  7.5077333076532324e-05 -1.1493667713938673e-02 0.0000000000000000e+00  7.0323937229996991e-05 -1.1454847572939006e-02 0.0000000000000000e+00  5.5030528498906808e-05 -1.0829793123458673e-02 0.0000000000000000e+00  6.9805599583627336e-05 -1.1448286807762293e-02 0.0000000000000000e+00  7.7427007605418508e-05 -1.0961528271517052e-02 0.0000000000000000e+00  4.9454754301754227e-05 -7.7845443937149513e-03 0.0000000000000000e+00  0.0000000000000000e+00 0.0000000000000000e+00 0.0000000000000000e+00  5.6395930752700211e-05 -1.0764636192162412e-02 0.0000000000000000e+00  6.3821950433685731e-05 -1.1377847269729487e-02 0.0000000000000000e+00  6.5385736633898192e-05 -1.0895547906666402e-02 0.0000000000000000e+00  4.4015836234608500e-05 -7.7080137392281966e-03 0.0000000000000000e+00  0.0000000000000000e+00 0.0000000000000000e+00 0.0000000000000000e+00  6.1028676367493167e-05 -1.0860690412071574e-02 0.0000000000000000e+00  5.7982790269424534e-05 -1.1462690766764956e-02 0.0000000000000000e+00  4.7898926359554760e-05 -1.1041669114192585e-02 0.0000000000000000e+00  2.9310823187610866e-05 -7.7211969005005375e-03 0.0000000000000000e+00  0.0000000000000000e+00 0.0000000000000000e+00 0.0000000000000000e+00  7.3685449394348865e-05 -1.0731676017520330e-02 0.0000000000000000e+00  1.0429245177323743e-04 -1.1338092001152700e-02 0.0000000000000000e+00  4.8863405073795215e-05 -1.0908150294218313e-02 0.0000000000000000e+00  3.4861992538883991e-05 -7.7272234807176186e-03 0.0000000000000000e+00  0.0000000000000000e+00 0.0000000000000000e+00 0.0000000000000000e+00  5.9080133062918956e-05 -1.0876310740018498e-02 0.0000000000000000e+00  5.6541907009973150e-05 -1.1484559891200003e-02 0.0000000000000000e+00  4.8043881346351403e-05 -1.0998044437379008e-02 0.0000000000000000e+00  3.5125750745898214e-05 -7.8139245010526593e-03 0.0000000000000000e+00  0.0000000000000000e+00 0.0000000000000000e+00 0.0000000000000000e+00  6.1492568338743323e-05 -1.0897125628299677e-02 0.0000000000000000e+00  7.1195774319361192e-05 -1.1511770111470185e-02 0.0000000000000000e+00  7.7707419509804682e-05 -1.1021839344841395e-02 0.0000000000000000e+00  5.1926949121693793e-05 -7.8482918741252725e-03 0.0000000000000000e+00  0.0000000000000000e+00 0.0000000000000000e+00 0.0000000000000000e+00  6.1158260806072417e-05 -1.0951476908899131e-02 0.0000000000000000e+00  6.8090936570809168e-05 -1.1548256503268470e-02 0.0000000000000000e+00  7.2604612244932959e-05 -1.1129606003060375e-02 0.0000000000000000e+00  5.3376106301746572e-05 -7.8148008792005789e-03 0.0000000000000000e+00  0.0000000000000000e+00 0.0000000000000000e+00 0.0000000000000000e+00  5.3677989472627681e-05 -1.0935402481982262e-02 0.0000000000000000e+00  5.1170515107685110e-05 -1.1529546380768514e-02 0.0000000000000000e+00  4.2952992229628082e-05 -1.1104185325111947e-02 0.0000000000000000e+00  2.5835183330149682e-05 -7.7899502148471994e-03 0.0000000000000000e+00  0.0000000000000000e+00 0.0000000000000000e+00 0.0000000000000000e+00  6.1137776710951829e-05 -1.0584588081126800e-02 0.0000000000000000e+00  6.0061430869479831e-05 -1.1197906974225869e-02 0.0000000000000000e+00  5.2660743538970838e-05 -1.0724521387821487e-02 0.0000000000000000e+00  3.6910271441111169e-05 -7.5316997821407196e-03 0.0000000000000000e+00  0.0000000000000000e+00 0.0000000000000000e+00 0.0000000000000000e+00  6.5114011629719310e-05 -1.0568993748459590e-02 0.0000000000000000e+00  6.3066525813789613e-05 -1.1173941648451015e-02 0.0000000000000000e+00  5.3334763304243638e-05 -1.0763812050625165e-02 0.0000000000000000e+00  3.3087100419723742e-05 -7.4405821737876668e-03 0.0000000000000000e+00  0.0000000000000000e+00 0.0000000000000000e+00 0.0000000000000000e+00  7.2495704789695331e-05 -1.0633979393671458e-02 0.0000000000000000e+00  1.0364340778412695e-04 -1.1243653986665901e-02 0.0000000000000000e+00  4.2609603530354292e-05 -1.0815108125763797e-02 0.0000000000000000e+00  3.4040339682457983e-05 -7.6289219174386818e-03 0.0000000000000000e+00  0.0000000000000000e+00 0.0000000000000000e+00 0.0000000000000000e+00  7.9491555909781453e-05 -1.0831385896340934e-02 0.0000000000000000e+00  1.0641186862340570e-04 -1.1411678214599284e-02 0.0000000000000000e+00  6.2821386103679655e-05 -1.0869966838882219e-02 0.0000000000000000e+00  7.6342851417945135e-05 -1.1473280404649296e-02 0.0000000000000000e+00  4.5907628738461115e-05 -7.6977571089322872e-03 0.0000000000000000e+00  0.0000000000000000e+00 0.0000000000000000e+00 0.0000000000000000e+00  6.1734529969672018e-05 -1.0582218505940759e-02 0.0000000000000000e+00  7.3342967924161926e-05 -1.1161170374658488e-02 0.0000000000000000e+00  7.8658503088968533e-05 -1.0681380536988347e-02 0.0000000000000000e+00  7.7954003624108886e-05 -1.1222947511046561e-02 0.0000000000000000e+00  5.0040717152298791e-05 -7.5253330810832533e-03 0.0000000000000000e+00  0.0000000000000000e+00 0.0000000000000000e+00 0.0000000000000000e+00  7.7672016711394812e-05 -1.0719270194915956e-02 0.0000000000000000e+00  9.8637504996693033e-05 -1.1280270061001987e-02 0.0000000000000000e+00  3.3378123135138836e-05 -1.0849112687060954e-02 0.0000000000000000e+00  6.4897414514252227e-05 -1.1348228178136178e-02 0.0000000000000000e+00  3.5561167231740690e-05 -7.7049443395200813e-03 0.0000000000000000e+00  0.0000000000000000e+00 0.0000000000000000e+00 0.0000000000000000e+00  8.8887375189704179e-05 -1.0750028162645026e-02 0.0000000000000000e+00  1.1757221895176758e-04 -1.1310216198336017e-02 0.0000000000000000e+00  6.7320634145006403e-05 -1.0856382712709143e-02 0.0000000000000000e+00  8.2009466452935841e-05 -1.1381521326590299e-02 0.0000000000000000e+00  5.4227056452673517e-05 -7.5210199284328162e-03 0.0000000000000000e+00  0.0000000000000000e+00 0.0000000000000000e+00 0.0000000000000000e+00  6.9762891006654173e-05 -1.0802035047131191e-02 0.0000000000000000e+00  7.9090260615830298e-05 -1.1229017994365292e-02 0.0000000000000000e+00  8.0886932391319776e-05 -1.0399988125333312e-02 0.0000000000000000e+00  1.5305150870590255e-05 -1.0930512297319173e-02 0.0000000000000000e+00  4.1912006549468847e-05 -1.1354278145890002e-02 0.0000000000000000e+00  -3.0079650699958496e-05 -1.0535377426002383e-02 0.0000000000000000e+00  6.1481868947964517e-05 -1.1318660482660064e-02 0.0000000000000000e+00  -1.9791245787257139e-05 -7.2777359842916617e-03 0.0000000000000000e+00  2.8068144342054588e-05 -1.1145239282402237e-02 0.0000000000000000e+00  5.8842224339999170e-05 -1.1464185702976989e-02 0.0000000000000000e+00  2.6963177854000058e-06 -1.0701582734868811e-02 0.0000000000000000e+00  6.1366494067672552e-05 -1.1094109629839598e-02 0.0000000000000000e+00  6.5557271477277462e-05 -1.1448031423507282e-02 0.0000000000000000e+00  6.5650976624168956e-05 -1.0679115635378659e-02 0.0000000000000000e+00  7.4645463283418967e-05 -1.1430660198285800e-02 0.0000000000000000e+00  8.8107621514995179e-05 -1.1416212255811551e-02 0.0000000000000000e+00  7.6265375388952171e-05 -1.1429402619024179e-02 0.0000000000000000e+00  7.6038537660708496e-05 -1.1431193780284753e-02 0.0000000000000000e+00  6.9261491003344577e-05 -1.1418239250612543e-02 0.0000000000000000e+00  7.6495050280953790e-05 -1.1248959852089790e-02 0.0000000000000000e+00  7.0680536369893292e-05 -1.1241646915747167e-02 0.0000000000000000e+00  7.8495836362576241e-05 -1.1264333657878581e-02 0.0000000000000000e+00  8.1164801333807982e-05 -1.1260688847720539e-02 0.0000000000000000e+00  8.0401997272169459e-05 -1.1244718208077792e-02 0.0000000000000000e+00  6.8512467747755090e-05 -1.1393280813939631e-02 0.0000000000000000e+00  8.2011385609538737e-05 -1.1379496253675330e-02 0.0000000000000000e+00  6.7678015858283800e-05 -1.1394784787595725e-02 0.0000000000000000e+00  6.8678148973889521e-05 -1.1398217744501634e-02 0.0000000000000000e+00  6.1248333543944058e-05 -1.1390345233004456e-02 0.0000000000000000e+00  6.8747421546695429e-05 -1.1522900067078871e-02 0.0000000000000000e+00  8.1335347708532248e-05 -1.1512296264250137e-02 0.0000000000000000e+00  7.0407848146334339e-05 -1.1522221704840012e-02 0.0000000000000000e+00  7.0119201214189703e-05 -1.1522659914418070e-02 0.0000000000000000e+00  6.2537836593399117e-05 -1.1504482707494485e-02 0.0000000000000000e+00  6.7167260329207534e-05 -1.1090363477064713e-02 0.0000000000000000e+00  7.8160548139252152e-05 -1.1519764024250910e-02 0.0000000000000000e+00  8.0684941020754052e-05 -1.0691445867221693e-02 0.0000000000000000e+00  5.9723004963341198e-05 -1.1482261603513745e-02 0.0000000000000000e+00  3.7965175519483435e-05 -7.4105745322705580e-03 0.0000000000000000e+00  6.4386846760885967e-05 -1.1158117846230713e-02 0.0000000000000000e+00  7.5809769363999584e-05 -1.1586129426506026e-02 0.0000000000000000e+00  8.0036576202294365e-05 -1.0755058925506298e-02 0.0000000000000000e+00  6.2416744817654079e-05 -1.1270870974422408e-02 0.0000000000000000e+00  6.7957209089718223e-05 -1.1585012876023688e-02 0.0000000000000000e+00  4.1719649002839268e-05 -7.5711845602131319e-03 0.0000000000000000e+00  5.4730962473340094e-05 -1.1549685164685075e-02 0.0000000000000000e+00  3.6270545156096220e-05 -7.4685851253333511e-03 0.0000000000000000e+00  6.4139546711357599e-05 -1.1193061354931796e-02 0.0000000000000000e+00  4.0407861006164899e-05 -7.1636411388204708e-03 0.0000000000000000e+00  1.1412688069876360e-05 -1.0957899157158847e-02 0.0000000000000000e+00  5.1209463230878193e-05 -1.1330888019231208e-02 0.0000000000000000e+00  -1.6478040925547470e-05 -1.0515265047720931e-02 0.0000000000000000e+00  6.0940765367185871e-05 -1.1516599457869710e-02 0.0000000000000000e+00  6.6200497177129649e-05 -1.1523831463982413e-02 0.0000000000000000e+00  6.3779343200821414e-05 -1.1520242652567658e-02 0.0000000000000000e+00  7.8530840958538885e-05 -1.1273390306229395e-02 0.0000000000000000e+00  7.9469394641801355e-05 -1.1276894097277891e-02 0.0000000000000000e+00  7.8082264491798555e-05 -1.1269978560099217e-02 0.0000000000000000e+00  5.8111715494291771e-05 -1.1401297546022478e-02 0.0000000000000000e+00  5.8539914023972411e-05 -1.1400187820234980e-02 0.0000000000000000e+00  6.2291974818714537e-05 -1.1402008325463309e-02 0.0000000000000000e+00  6.6108359348564778e-05 -1.1425340469520954e-02 0.0000000000000000e+00  7.0247936011094133e-05 -1.1427889914217022e-02 0.0000000000000000e+00  7.0115143011586760e-05 -1.1428295084961701e-02 0.0000000000000000e+00  1.8031454733149587e-05 -1.1075269928269444e-02 0.0000000000000000e+00  5.2682176412090720e-05 -1.1420359161743141e-02 0.0000000000000000e+00  -1.9072530299590494e-05 -1.0637569051486304e-02 0.0000000000000000e+00  6.7770581795046042e-05 -1.1320519475915843e-02 0.0000000000000000e+00  8.1644614591462229e-05 -1.1312556697910002e-02 0.0000000000000000e+00  6.9596505410464472e-05 -1.1365560971142830e-02 0.0000000000000000e+00  7.9317133301493582e-05 -1.1000312764290478e-02 0.0000000000000000e+00  7.4847552233360518e-05 -1.1232385040042696e-02 0.0000000000000000e+00  8.2277575448198612e-05 -1.1288376299510286e-02 0.0000000000000000e+00  6.3048877238689130e-05 -1.1289811816861095e-02 0.0000000000000000e+00  6.4320540790187161e-05 -1.1269547046037649e-02 0.0000000000000000e+00  6.3240575463149190e-05 -1.1329914171650269e-02 0.0000