<?xml version="1.0"?>
<VTKFile type="UnstructuredGrid"  version="0.1"  >
<UnstructuredGrid>
<Piece  NumberOfPoints="2690" NumberOfCells="4864">
<Points>
<DataArray  type="Float64"  NumberOfComponents="3"  format="ascii">-5.001223208356413 22.00025238628396 0  -5.604130622409332 21.26275548803017 0  -5.001198038714467 21.50027316912097 0  -5.00117048521897 21.00025442542693 0  -5.604154146036827 21.76275993369942 0  -6.207087170714692 21.52522633620486 0  -9 21.99999999996945 0  -8.397053518341647 21.26255293485743 0  -9 21.49999999997139 0  -9 20.99999999997333 0  -8.397057707944308 21.76255262561232 0  -7.794111438365085 21.52510459820213 0  -9 32.9999999999446 0  -8.397145883315851 32.26255207455021 0  -9 32.49999999994358 0  -9 31.99999999994255 0  -8.397150079017905 32.76255214248725 0  -7.794296172523783 32.52510369614587 0  -5.00183653334838 33.00027324745555 0  -5.521264737290343 32.29662853629349 0  -5.001810196562564 32.50030949090785 0  -5.001782098212835 32.00026463835815 0  -5.521288854053771 32.79663552682504 0  -6.040743153126115 32.59295845487797 0  -5.003009556509163 54.00026197914227 0  -5.605713046697399 54.73774944576937 0  -5.605689944658178 54.23776036642144 0  -6.208368227684416 54.47522077740931 0  -5.003035525492671 54.50027994018547 0  -5.003061216000751 55.00026385230075 0  -9 54.99999999998974 0  -8.470334597456423 54.29615865264928 0  -9 54.49999999998872 0  -9 53.99999999998769 0  -8.470338177707871 54.79615759392591 0  -7.940673487940978 54.59231551866836 0  -9 39.99999999995897 0  -8.397217074083395 40.73755130530414 0  -8.397212880125879 40.23755134842654 0  -7.794429748209732 40.47510196166666 0  -9 40.49999999996 0  -9 40.99999999996102 0  -5.002282473849581 41.00024229330295 0  -5.578354480745775 40.26807945124364 0  -5.002256420439686 40.50028126774196 0  -5.002229870939613 40.00027341634386 0  -5.578378106276509 40.7680752693267 0  -6.154476414255161 40.53586378909085 0  -9 55.99999999999179 0  -8.422162587737153 56.74337282780691 0  -8.422159035647811 56.24337216975987 0  -7.844321797965831 56.48674430136654 0  -9 56.49999999999282 0  -9 56.99999999999384 0  -5.00312010118827 56.00025050237818 0  -5.580993990128317 56.74357598569438 0  -5.580970905311109 56.24357493769104 0  -6.158818959506801 56.486868502028 0  -5.003147479362852 56.50028837580307 0  -5.003173075722407 57.00026456162028 0  -7.438435409142787 43.0001433241712 0  -6.591066633607428 43.10839420759081 0  -7.200081641052682 43.33750472487817 0  -6.961730121387425 43.67486636569318 0  -6.829418267120266 42.7710312521203 0  -6.220397145809625 42.54191913349484 0  -6.56416314444635 49.00027056809024 0  -7.411462221008967 48.89200435772635 0  -6.802495059654142 48.66290722410083 0  -7.040829233253345 48.32554309296027 0  -7.173128172349693 49.22936713985027 0  -7.782089324991864 49.45846568218563 0  -6.564060951602542 46.00025408701904 0  -7.411395645171972 45.89199380979376 0  -6.802402916320581 45.66288787271284 0  -7.040747143220996 45.32552296912443 0  -7.173051589337156 46.22935855660805 0  -7.782038298180773 46.45846203767905 0  -6.562737522016196 7.000263918359286 0  -7.410532612885781 6.892001435795653 0  -6.801209063142048 6.662900419671277 0  -7.03968286009649 6.325536980155593 0  -7.172058994621584 7.229364858519759 0  -7.781376551269543 7.458465572785963 0  -7.438152517378344 30.00014163060062 0  -6.590630199209871 30.10839054407213 0  -7.199755569311436 30.3374991393929 0  -6.961360875989406 30.67485579546401 0  -6.829025032794695 29.77103220184554 0  -6.219893569937541 29.54192411709653 0  -6.562637401306819 4.00025124531414 0  -7.410472517173085 4.108334334093612 0  -6.801139131578052 4.337566023577415 0  -7.039638649712961 4.674879926734212 0  -7.171973141405674 3.771019881899298 0  -7.781312256200435 3.54179023294915 0  -6.562839103919497 10.00026636164492 0  -7.410603574003061 10.10834443512018 0  -6.801321272497995 10.33757774866343 0  -7.03980120330355 10.67488912030059 0  -7.172123504841698 9.771033301532082 0  -7.781411791125668 9.541799958581278 0  -6.562940871322759 13.00026856669163 0  -7.410665158048219 12.892005184941 0  -6.801392434482944 12.66290514976472 0  -7.039846241021812 12.32554181872382 0  -7.17221149620559 13.22936893619778 0  -7.781478224150913 13.45846850196181 0  -6.563042859334089 16.00027274894428 0  -7.410731641175119 15.8920063713965 0  -6.801484407694966 15.66290961733508 0  -7.039928211514421 15.32554581751738 0  -7.17228796873762 16.22936918171149 0  -7.781529198833342 16.45846717774746 0  -6.563144694669804 19.00024376178482 0  -7.410802877070078 19.10832687427838 0  -6.801597008981587 19.33755079107162 0  -7.040047059235341 19.67485937412926 0  -7.172352686554447 18.77101753032537 0  -7.781564568056512 18.54179055516623 0  -6.563416091278458 27.00023438323606 0  -7.410979847262309 27.1083209631259 0  -6.801841830729307 27.33754661288209 0  -7.040265307034775 27.6748591978106 0  -7.172556212296405 26.77100692279778 0  -7.781700249818538 26.54178163166732 0  -8.26932381729217 19.09397260370771 0  -8.025445131735998 18.81788117198303 0  -8.390779984960284 18.27089599501499 0  -8.634659123071078 18.54698742410104 0  -9 17.99999999998495 0  -8.269405182587368 27.09396963305288 0  -8.025553655257394 26.81787566378504 0  -8.390847826444375 26.27089058110226 0  -8.634699806484765 26.54698476885908 0  -9 25.99999999995395 0  -8.269291353213701 15.90618011253255 0  -8.02540933706058 16.18232379180861 0  -8.390766897609723 16.72923299945803 0  -8.634648462445162 16.45308962819114 0  -9 16.99999999998883 0  -5.732239914866334 30.09421022184668 0  -5.976065739966169 29.81806680417287 0  -5.610755995360729 29.27114760057798 0  -5.366929325972221 29.54730296267887 0  -5.001612435781891 29.00025190003711 0  -8.269260789977718 12.90618003257016 0  -8.025368568621834 13.18232421313506 0  -8.390741412328291 13.72923436329292 0  -8.634633179527547 13.45309014025101 0  -9 13.99999999999401 0  -8.269232185183796 10.09398082546122 0  -8.025322924573244 9.817890404409969 0  -8.390703603515945 9.270899934942818 0  -8.634613314238324 9.546990358720027 0  -9 8.99999999999857 0  -8.269172119195408 4.093976045589169 0  -8.025243050441146 3.817883357469943 0  -8.390654255241483 3.270894739527973 0  -8.634583561059276 3.546987483218675 0  -9 2.999999999998668 0  -8.269199866339424 6.906178155863325 0  -8.025287275556281 7.182321813821167 0  -8.390690566864393 7.729232864171964 0  -8.634602697446228 7.453089233094025 0  -9 7.999999999999485 0  -8.269596656768664 45.90617464347499 0  -8.025816537698997 46.18231804645114 0  -8.391021453580191 46.72923147677837 0  -8.634801115511008 46.45308809921665 0  -9 46.99999999997333 0  -8.269627252500582 48.90617903969925 0  -8.025857349752581 49.18232250121846 0  -8.391046955232994 49.72923223903762 0  -8.634816410860831 49.45308914998796 0  -9 49.99999999997949 0  -5.732831954685842 43.09421332120527 0  -5.976613535979017 42.81806604737671 0  -5.611369879071925 42.27113897620115 0  -5.367587490103472 42.5472995207053 0  -5.002336549142821 42.00024181674969 0  -5.727217015293129 23.91663593870378 0  -5.975908892982815 24.18434437413045 0  -5.612993372150425 24.72621293749773 0  -6.224598812819794 24.45205360534502 0  -5.364302391766213 24.4585166536716 0  -5.001393884787903 25.0002514877677 0  -8.274399373972791 52.083747281152 0  -8.025812807728627 51.81603740245814 0  -8.388609873015602 51.27416481597564 0  -7.777224397938971 51.54832824331734 0  -8.637196964098866 51.54187467856963 0  -9 50.99999999998153 0  -5.72786281363057 38.08398516837482 0  -5.976482914141362 37.81622035184582 0  -5.6135846095461 37.2744083094529 0  -6.225104978489919 37.54845656418482 0  -5.364963587191485 37.54218746408719 0  -5.002057648069221 37.00023045406272 0  -5.727718580664223 34.91663337667686 0  -5.976372388512785 35.18434001078089 0  -5.613512604515435 35.72620549361457 0  -6.225024239528294 35.45204742331103 0  -5.364859548514785 35.45851275357227 0  -5.002007115872956 36.00024049130375 0  -7.884567187659622 50.50029301301832 0  -7.83089540840914 51.02431094824499 0  -8.442285525377379 50.75014583293313 0  -6.117829384793761 36.50024998146279 0  -6.17146750100227 37.02435166706475 0  -5.559942929300725 36.75028536761432 0  -6.171426499780518 35.97614717044334 0  -5.55991939154785 36.25028298121386 0  -5.977761339835449 25.26023543411207 0  -6.101179441826853 24.85614512568978 0  -5.489577649116755 25.13028987667822 0  -8.027847000959325 25.74590612642582 0  -7.904772941449297 26.14384387108646 0  -8.513924361462815 25.87295310405059 0  -6.943313299031096 34.37608745834268 0  -6.584166029289388 34.91406880087391 0  -6.841011622254451 35.23859242802338 0  -7.200159194444363 34.70061313981075 0  -7.457002751347849 35.02513837393158 0  -7.059094317686528 52.62428105846383 0  -7.418156679464922 52.08630599397249 0  -7.161374056457922 51.76178637153188 0  -6.802311988404088 52.29976218200183 0  -6.545527341335141 51.97524406583139 0  -6.94343511949428 38.62427972479002 0  -6.584272772893109 38.08636959422234 0  -6.841087447821932 37.7617966214946 0  -7.200249474632728 38.29970891748723 0  -7.457066168716761 37.97513759691765 0  -6.9429980703092 23.37608889531704 0  -6.583795713617386 23.91407207287247 0  -6.840680654742683 24.23859682960217 0  -7.199883315603191 23.70061539857857 0  -7.456766227883766 24.02514118693905 0  -7.884200442173099 17.5001188790634 0  -7.832882131075859 18.02095509733411 0  -8.442102164234212 17.75005873419152 0  -7.832865194342712 16.97929316896028 0  -8.442098277638992 17.25005982619912 0  -7.884060583465572 8.500121739029181 0  -7.832735812942849 9.020960870596131 0  -8.442032230233442 8.750060899231173 0  -7.931282066452982 2.415701331507924 0  -7.856296354973404 2.978745451823149 0  -8.465642884636683 2.707851034095751 0  -7.83271893378283 7.979293721756672 0  -8.442028357909821 8.25006078343462 0  -7.833328635077086 49.97937949903923 0  -8.442281651620432 50.25014689290791 0  -6.028316725494538 41.59334458278219 0  -6.124357502592704 42.06763
[...]
<PointData  Vectors="f_27"> 
<DataArray  type="Float64"  Name="f_27"  NumberOfComponents="3" format="ascii">0.0000000000000000e+00 0.0000000000000000e+00 0.0000000000000000e+00  2.9024259419525610e-07 -2.9417952513275071e-03 0.0000000000000000e+00  0.0000000000000000e+00 0.0000000000000000e+00 0.0000000000000000e+00  0.0000000000000000e+00 0.0000000000000000e+00 0.0000000000000000e+00  -6.1477423457484182e-06 -4.1233497578202077e-03 0.0000000000000000e+00  -1.7025104419310949e-06 -4.2452778531607916e-03 0.0000000000000000e+00  0.0000000000000000e+00 0.0000000000000000e+00 0.0000000000000000e+00  1.2374418749892759e-06 -2.9957125034304525e-03 0.0000000000000000e+00  0.0000000000000000e+00 0.0000000000000000e+00 0.0000000000000000e+00  0.0000000000000000e+00 0.0000000000000000e+00 0.0000000000000000e+00  8.9590935106258259e-06 -4.1168961529857847e-03 0.0000000000000000e+00  4.3007880372197984e-06 -4.2636933139456566e-03 0.0000000000000000e+00  0.0000000000000000e+00 0.0000000000000000e+00 0.0000000000000000e+00  7.8884318724341930e-07 -2.9395671060991205e-03 0.0000000000000000e+00  0.0000000000000000e+00 0.0000000000000000e+00 0.0000000000000000e+00  0.0000000000000000e+00 0.0000000000000000e+00 0.0000000000000000e+00  8.3631434695468687e-06 -4.1141083311212693e-03 0.0000000000000000e+00  3.6606958995486893e-06 -4.2611708261015959e-03 0.0000000000000000e+00  0.0000000000000000e+00 0.0000000000000000e+00 0.0000000000000000e+00  -5.3466222795712492e-07 -3.0859089151142592e-03 0.0000000000000000e+00  0.0000000000000000e+00 0.0000000000000000e+00 0.0000000000000000e+00  0.0000000000000000e+00 0.0000000000000000e+00 0.0000000000000000e+00  -4.4403137848503750e-06 -4.1297936397462426e-03 0.0000000000000000e+00  -1.4353845314357201e-06 -4.2710332690698224e-03 0.0000000000000000e+00  0.0000000000000000e+00 0.0000000000000000e+00 0.0000000000000000e+00  1.7942364011710930e-06 -3.0783471370015615e-03 0.0000000000000000e+00  1.0488173454017012e-05 -4.1248673647867051e-03 0.0000000000000000e+00  4.4326219788168748e-06 -4.2637454725533335e-03 0.0000000000000000e+00  0.0000000000000000e+00 0.0000000000000000e+00 0.0000000000000000e+00  0.0000000000000000e+00 0.0000000000000000e+00 0.0000000000000000e+00  0.0000000000000000e+00 0.0000000000000000e+00 0.0000000000000000e+00  -6.3753451637856188e-07 -3.0719232581469355e-03 0.0000000000000000e+00  0.0000000000000000e+00 0.0000000000000000e+00 0.0000000000000000e+00  0.0000000000000000e+00 0.0000000000000000e+00 0.0000000000000000e+00  1.0493411089154161e-06 -4.1583143379109811e-03 0.0000000000000000e+00  4.7950934424080124e-07 -4.2715569150165219e-03 0.0000000000000000e+00  0.0000000000000000e+00 0.0000000000000000e+00 0.0000000000000000e+00  -5.8865378190027503e-07 -2.9323250186753941e-03 0.0000000000000000e+00  -7.8881277121531661e-06 -4.1141891122102037e-03 0.0000000000000000e+00  -3.3617472556086740e-06 -4.2591281649405274e-03 0.0000000000000000e+00  0.0000000000000000e+00 0.0000000000000000e+00 0.0000000000000000e+00  0.0000000000000000e+00 0.0000000000000000e+00 0.0000000000000000e+00  0.0000000000000000e+00 0.0000000000000000e+00 0.0000000000000000e+00  3.6733113295601174e-06 -2.9880270019197437e-03 0.0000000000000000e+00  0.0000000000000000e+00 0.0000000000000000e+00 0.0000000000000000e+00  0.0000000000000000e+00 0.0000000000000000e+00 0.0000000000000000e+00  -1.7062632095643795e-06 -4.1602473099528444e-03 0.0000000000000000e+00  7.3471754914472559e-07 -4.2690785135814317e-03 0.0000000000000000e+00  0.0000000000000000e+00 0.0000000000000000e+00 0.0000000000000000e+00  2.6199717606523945e-06 -3.1921804553380656e-03 0.0000000000000000e+00  -4.0268391204870039e-06 -4.1349694397856311e-03 0.0000000000000000e+00  4.9566321078452608e-07 -4.2694021639343690e-03 0.0000000000000000e+00  0.0000000000000000e+00 0.0000000000000000e+00 0.0000000000000000e+00  0.0000000000000000e+00 0.0000000000000000e+00 0.0000000000000000e+00  0.0000000000000000e+00 0.0000000000000000e+00 0.0000000000000000e+00  -2.6986532249085036e-06 -3.1919563507308204e-03 0.0000000000000000e+00  4.1758058052320926e-06 -4.1349505506122989e-03 0.0000000000000000e+00  -5.5795750412258017e-07 -4.2682210598922292e-03 0.0000000000000000e+00  0.0000000000000000e+00 0.0000000000000000e+00 0.0000000000000000e+00  0.0000000000000000e+00 0.0000000000000000e+00 0.0000000000000000e+00  1.1933665238815215e-07 -4.3825268440423476e-03 0.0000000000000000e+00  -6.6671770698915308e-07 -4.3850604816441834e-03 0.0000000000000000e+00  -6.3655513272212317e-07 -4.3859513827022995e-03 0.0000000000000000e+00  -7.6748736563149988e-07 -4.3861467781773217e-03 0.0000000000000000e+00  -5.2145989099876438e-07 -4.3855284361112353e-03 0.0000000000000000e+00  -3.1097125523752020e-06 -4.3687242218361042e-03 0.0000000000000000e+00  3.6470649856267048e-07 -4.3807777635066691e-03 0.0000000000000000e+00  2.0616781911814003e-07 -4.3779120545685167e-03 0.0000000000000000e+00  3.9414752820578951e-07 -4.3836297335503186e-03 0.0000000000000000e+00  4.2716942353966709e-07 -4.3809398341006639e-03 0.0000000000000000e+00  -1.6664358219545594e-07 -4.3830525419314061e-03 0.0000000000000000e+00  -1.7857555855376239e-06 -4.3668487385078777e-03 0.0000000000000000e+00  -2.2495196009947536e-06 -4.3808097053876990e-03 0.0000000000000000e+00  -1.5007201425695785e-06 -4.3834245126406013e-03 0.0000000000000000e+00  -2.1593253047313106e-06 -4.3847792668571337e-03 0.0000000000000000e+00  -1.6291549379247456e-06 -4.3855692811318077e-03 0.0000000000000000e+00  -1.9550812399917294e-06 -4.3829143094523768e-03 0.0000000000000000e+00  -2.8071943017521949e-06 -4.3668244607078565e-03 0.0000000000000000e+00  -1.2007213328579060e-06 -4.3815932208835845e-03 0.0000000000000000e+00  -1.4334215992386941e-06 -4.3838934403753098e-03 0.0000000000000000e+00  -1.2606614077848793e-06 -4.3850544681242800e-03 0.0000000000000000e+00  -8.5158073829492865e-07 -4.3851493057711676e-03 0.0000000000000000e+00  -1.6632188927767795e-06 -4.3843380664137762e-03 0.0000000000000000e+00  -2.9849703905318818e-06 -4.3693929849620838e-03 0.0000000000000000e+00  -1.2549594088964526e-06 -4.3808625741077216e-03 0.0000000000000000e+00  -1.6772732185582401e-07 -4.3803161166877580e-03 0.0000000000000000e+00  -1.5031922058446632e-06 -4.3861687274197904e-03 0.0000000000000000e+00  -1.0625829955883500e-06 -4.3833722138336096e-03 0.0000000000000000e+00  -5.5525113870606305e-07 -4.3841905931127443e-03 0.0000000000000000e+00  -1.4550483920839590e-06 -4.3670057781626959e-03 0.0000000000000000e+00  -4.3447750903357705e-07 -4.3816367711910827e-03 0.0000000000000000e+00  3.7819374012090521e-07 -4.3846339235540681e-03 0.0000000000000000e+00  6.5243510534098843e-08 -4.3854707714138788e-03 0.0000000000000000e+00  -6.5649699061834784e-08 -4.3854723423174891e-03 0.0000000000000000e+00  2.2735217070063055e-07 -4.3851178017132991e-03 0.0000000000000000e+00  1.8746308866493039e-06 -4.3712801831167040e-03 0.0000000000000000e+00  1.6145435042321122e-06 -4.3814264752436343e-03 0.0000000000000000e+00  1.8377058173904949e-06 -4.3834183464308693e-03 0.0000000000000000e+00  1.5618716785956700e-06 -4.3847524724943184e-03 0.0000000000000000e+00  1.0849126600642298e-06 -4.3847739782769844e-03 0.0000000000000000e+00  2.2323200640949060e-06 -4.3839558608906089e-03 0.0000000000000000e+00  4.1608011981148470e-06 -4.3665313589355782e-03 0.0000000000000000e+00  -7.0544607344028307e-07 -4.3809009167641829e-03 0.0000000000000000e+00  -6.6151162422469218e-07 -4.3830973213248650e-03 0.0000000000000000e+00  -6.0864179746152621e-07 -4.3843762989220127e-03 0.0000000000000000e+00  -1.2961373003899090e-07 -4.3845319864753126e-03 0.0000000000000000e+00  -1.0982904821843717e-06 -4.3832610807123850e-03 0.0000000000000000e+00  -2.4062485070042223e-06 -4.3671525945176027e-03 0.0000000000000000e+00  3.6240839065025651e-07 -4.3818859485896351e-03 0.0000000000000000e+00  2.6119445959253904e-07 -4.3789022090185755e-03 0.0000000000000000e+00  4.7117402269370430e-07 -4.3847079818002069e-03 0.0000000000000000e+00  5.8429633485769423e-07 -4.3820009540033603e-03 0.0000000000000000e+00  -2.0262701893695644e-07 -4.3840464469035965e-03 0.0000000000000000e+00  -1.8215850384005790e-06 -4.3677463749936113e-03 0.0000000000000000e+00  3.1003384302431345e-06 -4.3820905621647574e-03 0.0000000000000000e+00  1.7876392664933164e-06 -4.3803155063990469e-03 0.0000000000000000e+00  2.8585154210449865e-06 -4.3866179917278472e-03 0.0000000000000000e+00  2.1650445317242003e-06 -4.3832678283169165e-03 0.0000000000000000e+00  2.7017247469831855e-06 -4.3851496413473230e-03 0.0000000000000000e+00  4.1906555594861823e-06 -4.3659672098096810e-03 0.0000000000000000e+00  1.0740494133936118e-06 -4.3796286095963656e-03 0.0000000000000000e+00  1.4763235233483891e-06 -4.3840878967938649e-03 0.0000000000000000e+00  1.7444739813275381e-06 -4.3847599662240064e-03 0.0000000000000000e+00  1.7836915912258309e-06 -4.3834462916880201e-03 0.0000000000000000e+00  1.0045430815227226e-06 -4.3842755423897017e-03 0.0000000000000000e+00  2.4147257338582993e-06 -4.3688825717183100e-03 0.0000000000000000e+00  -1.4433611390310985e-07 -4.1022165393461169e-03 0.0000000000000000e+00  3.4682200654942504e-06 -4.3385049387974061e-03 0.0000000000000000e+00  6.7007836918105187e-06 -4.1520838080237443e-03 0.0000000000000000e+00  3.7782558912609883e-06 -2.9430257465656168e-03 0.0000000000000000e+00  0.0000000000000000e+00 0.0000000000000000e+00 0.0000000000000000e+00  6.8730956915090226e-07 -4.1076265074672545e-03 0.0000000000000000e+00  2.0919288045186994e-06 -4.3402821205193922e-03 0.0000000000000000e+00  4.2142777187861460e-06 -4.1552647690253292e-03 0.0000000000000000e+00  2.4518974797396186e-06 -2.9431492294060206e-03 0.0000000000000000e+00  0.0000000000000000e+00 0.0000000000000000e+00 0.0000000000000000e+00  -5.0816884527598601e-07 -4.1072416513201811e-03 0.0000000000000000e+00  -2.7177979318103139e-06 -4.3374974114197030e-03 0.0000000000000000e+00  -5.6707673175286264e-06 -4.1792738105358484e-03 0.0000000000000000e+00  -5.1214389707415633e-06 -2.9141850442147370e-03 0.0000000000000000e+00  0.0000000000000000e+00 0.0000000000000000e+00 0.0000000000000000e+00  1.7492784014783972e-06 -4.1041732667654058e-03 0.0000000000000000e+00  -6.2514840651671169e-07 -4.3390833151733177e-03 0.0000000000000000e+00  -3.4216097660285141e-06 -4.1532133830026264e-03 0.0000000000000000e+00  -1.7021147585910434e-06 -2.9421379114081330e-03 0.0000000000000000e+00  0.0000000000000000e+00 0.0000000000000000e+00 0.0000000000000000e+00  1.1412578763364282e-07 -4.1053055651091349e-03 0.0000000000000000e+00  -1.8757403843236797e-06 -4.3381666818189165e-03 0.0000000000000000e+00  -4.4348074899762858e-06 -4.1560051747188565e-03 0.0000000000000000e+00  -2.3858437940649271e-06 -2.9421076250718344e-03 0.0000000000000000e+00  0.0000000000000000e+00 0.0000000000000000e+00 0.0000000000000000e+00  1.3622003122769486e-06 -4.1042988709930426e-03 0.0000000000000000e+00  3.9373644428268907e-06 -4.3381708684581705e-03 0.0000000000000000e+00  6.7718244482688049e-06 -4.1522376014847861e-03 0.0000000000000000e+00  4.1072414950530468e-06 -2.9432899698818276e-03 0.0000000000000000e+00  0.0000000000000000e+00 0.0000000000000000e+00 0.0000000000000000e+00  1.4157626362047415e-06 -4.1124662760561835e-03 0.0000000000000000e+00  2.9985704312487426e-06 -4.3401297356013219e-03 0.0000000000000000e+00  5.1826832521404340e-06 -4.1832955739957017e-03 0.0000000000000000e+00  5.0565318210510768e-06 -2.9170829116395990e-03 0.0000000000000000e+00  0.0000000000000000e+00 0.0000000000000000e+00 0.0000000000000000e+00  -1.9178309108738866e-06 -4.1110944574505575e-03 0.0000000000000000e+00  -3.7505878641591022e-06 -4.3384824341310630e-03 0.0000000000000000e+00  -6.3139528910887626e-06 -4.1801193964111673e-03 0.0000000000000000e+00  -5.5561753642980585e-06 -2.9151583145916892e-03 0.0000000000000000e+00  0.0000000000000000e+00 0.0000000000000000e+00 0.0000000000000000e+00  5.7975557772056251e-07 -4.1049926109049499e-03 0.0000000000000000e+00  -1.9493319286370381e-06 -4.3378398859311015e-03 0.0000000000000000e+00  -4.5012401537670100e-06 -4.1554898423909236e-03 0.0000000000000000e+00  -2.3008421546768935e-06 -2.9413329696492234e-03 0.0000000000000000e+00  0.0000000000000000e+00 0.0000000000000000e+00 0.0000000000000000e+00  -5.2107019756796753e-07 -4.1063304253252221e-03 0.0000000000000000e+00  -2.7103074072595474e-06 -4.3366076568393695e-03 0.0000000000000000e+00  -5.6115451178811951e-06 -4.1784904223783103e-03 0.0000000000000000e+00  -5.1125496117040930e-06 -2.9132420604607947e-03 0.0000000000000000e+00  0.0000000000000000e+00 0.0000000000000000e+00 0.0000000000000000e+00  1.6697315342954949e-07 -4.1058614309872569e-03 0.0000000000000000e+00  -2.5940274030339119e-06 -4.3395156355060718e-03 0.0000000000000000e+00  -6.3423180843451695e-06 -4.1522233832504149e-03 0.0000000000000000e+00  -3.0219636183628727e-06 -2.9430150061526533e-03 0.0000000000000000e+00  0.0000000000000000e+00 0.0000000000000000e+00 0.0000000000000000e+00  9.7753014231476012e-08 -4.1236080330192479e-03 0.0000000000000000e+00  2.1593405107414266e-06 -4.3419357166678812e-03 0.0000000000000000e+00  4.0271091127728294e-06 -4.1538421378169467e-03 0.0000000000000000e+00  1.8388213923405809e-06 -4.3669026427253232e-03 0.0000000000000000e+00  2.0549641312591199e-06 -2.9508242890555112e-03 0.0000000000000000e+00  0.0000000000000000e+00 0.0000000000000000e+00 0.0000000000000000e+00  1.1541609566698457e-06 -4.1195610574002658e-03 0.0000000000000000e+00  4.2464677266560151e-06 -4.3397666483423313e-03 0.0000000000000000e+00  6.9824014898463850e-06 -4.1509402276104597e-03 0.0000000000000000e+00  4.2395697441680500e-06 -4.3635386307982645e-03 0.0000000000000000e+00  3.8044988023307450e-06 -2.9504699296686778e-03 0.0000000000000000e+00  0.0000000000000000e+00 0.0000000000000000e+00 0.0000000000000000e+00  -1.1381034914206626e-06 -4.1210792572931735e-03 0.0000000000000000e+00  -3.7007722667052877e-06 -4.3407747401993648e-03 0.0000000000000000e+00  -6.4003142947220286e-06 -4.1525415500630334e-03 0.0000000000000000e+00  -3.5732351767041873e-06 -4.3654051200667874e-03 0.0000000000000000e+00  -3.6163424289266885e-06 -2.9518863308427398e-03 0.0000000000000000e+00  0.0000000000000000e+00 0.0000000000000000e+00 0.0000000000000000e+00  3.1916249893894818e-06 -4.1301192258952216e-03 0.0000000000000000e+00  5.1477264029552411e-06 -4.3414112224483227e-03 0.0000000000000000e+00  7.0050704216303147e-06 -4.1803072524237237e-03 0.0000000000000000e+00  3.7559500389905893e-06 -4.3683535628205950e-03 0.0000000000000000e+00  5.8710005355181370e-06 -2.9234567155506045e-03 0.0000000000000000e+00  0.0000000000000000e+00 0.0000000000000000e+00 0.0000000000000000e+00  1.8812431506382081e-06 -4.1992774525660762e-03 0.0000000000000000e+00  4.6202584718855300e-06 -4.3633391742348131e-03 0.0000000000000000e+00  8.5199893082501580e-06 -4.0470419769166712e-03 0.0000000000000000e+00  -8.9757321061565574e-07 -4.2007043372129524e-03 0.0000000000000000e+00  -3.7357701702255000e-06 -4.3646051781720116e-03 0.0000000000000000e+00  -8.0207973470165097e-06 -4.0487299659399496e-03 0.0000000000000000e+00  3.8669868881018043e-06 -4.3487808244943244e-03 0.0000000000000000e+00  1.5163819137511197e-06 -2.8044874706773886e-03 0.0000000000000000e+00  2.4117388959958510e-06 -4.2465189106498233e-03 0.0000000000000000e+00  2.2940940022089302e-06 -4.3671378989529911e-03 0.0000000000000000e+00  5.2091991109837589e-06 -4.0693610047124575e-03 0.0000000000000000e+00  2.9205867658041513e-06 -4.2300382655319907e-03 0.0000000000000000e+00  2.5702456349936206e-06 -4.3651434969576531e-03 0.0000000000000000e+00  5.5833746204311224e-06 -4.0721620301041074e-03 0.0000000000000000e+00  1.9143204054441619e-06 -4.3849641389119972e-03 0.0000000000000000e+00  1.9413127049184551e-06 -4.3798440457477727e-03 0.0000000000000000e+00  2.2809355565699615e-06 -4.3850715135095395e-03 0.0000000000000000e+00  2.0685200808581780e-06 -4.3858926877586701e-03 0.0000000000000000e+00  2.1220144126876226e-06 -4.3818372433730868e-03 0.0000000000000000e+00  1.6332662322047535e-06 -4.3810611776134902e-03 0.0000000000000000e+00  1.0837427532120050e-06 -4.3740291296860464e-03 0.0000000000000000e+00  2.3299839444754526e-06 -4.3838765362337025e-03 0.0000000000000000e+00  1.9893577792605505e-06 -4.3851417688968190e-03 0.0000000000000000e+00  2.3949376857291183e-06 -4.3790439043495891e-03 0.0000000000000000e+00  -7.8671731009673977e-07 -4.3848128441470978e-03 0.0000000000000000e+00  -8.0898096075876616e-07 -4.3793303470164233e-03 0.0000000000000000e+00  -1.4440622461894138e-06 -4.3847785446965602e-03 0.0000000000000000e+00  -1.1238122986718147e-06 -4.3858639122967323e-03 0.0000000000000000e+00  -1.3307033498279595e-06 -4.3818476707649092e-03 0.0000000000000000e+00  5.2951913948378090e-07 -4.3846446267152501e-03 0.0000000000000000e+00  1.9746703542930612e-08 -4.3801350813245316e-03 0.0000000000000000e+00  2.5115549257128141e-07 -4.3844198745945336e-03 0.0000000000000000e+00  5.1315548115388046e-07 -4.3853897766350384e-03 0.0000000000000000e+00  -1.9803145661118620e-09 -4.3791808954733837e-03 0.0000000000000000e+00  1.7087093421050082e-06 -4.1997002279973257e-03 0.0000000000000000e+00  4.4698432835483966e-06 -4.3642411041297773e-03 0.0000000000000000e+00  8.3240924201359705e-06 -4.0475112302010520e-03 0.0000000000000000e+00  -2.4773868053103102e-06 -4.3478611783752267e-03 0.0000000000000000e+00  -1.1544534444759165e-06 -2.8008318759439833e-03 0.0000000000000000e+00  1.2888757816431961e-06 -4.2004093595385738e-03 0.0000000000000000e+00  4.2067577133183839e-06 -4.3642315406297767e-03 0.0000000000000000e+00  8.1569202557245029e-06 -4.0477545038306211e-03 0.0000000000000000e+00  2.6667689336150266e-07 -4.2332872332265428e-03 0.0000000000000000e+00  2.1295794585706390e-06 -4.3525887906491660e-03 0.0000000000000000e+00  1.0195771569607917e-06 -2.8302386598217095e-03 0.0000000000000000e+00  -3.2175611270279737e-06 -4.3483976946671107e-03 0.0000000000000000e+00  -1.3687455458298740e-06 -2.8011737703381580e-03 0.0000000000000000e+00  -2.3915082299893243e-06 -4.3470201856628827e-03 0.0000000000000000e+00  -1.0496452109051714e-06 -2.8001634374152976e-03 0.0000000000000000e+00  -5.3749132429740019e-06 -4.2224397549580836e-03 0.0000000000000000e+00  -4.7587717026650684e-06 -4.3668757559420755e-03 0.0000000000000000e+00  -1.0205735111777636e-05 -4.0542187512709622e-03 0.0000000000000000e+00  -3.8927276324029431e-07 -4.3840723908423699e-03 0.0000000000000000e+00  6.7330485361807253e-07 -4.3856785466777660e-03 0.0000000000000000e+00  -5.9712493690390211e-07 -4.3853964980465438e-03 0.0000000000000000e+00  2.5910302600038226e-06 -4.3847235407537604e-03 0.0000000000000000e+00  3.1546416968559491e-06 -4.3847191836018330e-03 0.0000000000000000e+00  2.3315660562724659e-06 -4.3856141968826971e-03 0.0000000000000000e+00  -1.3480833929612674e-06 -4.3852258330930715e-03 0.0000000000000000e+00  -2.1517139983398997e-06 -4.3855797601587447e-03 0.0000000000000000e+00  -1.2995579114250089e-06 -4.3859450048593521e-03 0.0000000000000000e+00  2.0439680511454636e-06 -4.3854147413776934e-03 0.0000000000000000e+00  2.8390412780974989e-06 -4.3858764226472188e-03 0.0000000000000000e+00  2.0611586300082199e-06 -4.3860062552312116e-03 0.0000000000000000e+00  -2.7194036437416429e-06 -4.2305236997346894e-03 0.0000000000000000e+00  -1.9821032058471902e-06 -4.3642280879615091e-03 0.0000000000000000e+00  -5.3865613389903665e-06 -4.0669269497240514e-03 0.0000000000000000e+00  4.6937964690477182e-07 -4.3691734648336738e-03 0.0000000000000000e+00  -8.6493669283651437e-07 -4.3647706060378818e-03 0.0000000000000000e+00  -3.2112183455689636e-07 -4.3851348912151240e-03 0.0000000000000000e+00  2.5754652732757900e-06 -4.2661661965455195e-03 0.0000000000000000e+00  -1.0065323005104604e-07 -4.3573530395708548e-03 0.0000000000000000e+00  8.5089785982846614e-07 -4.3771885537303989e-03 0.0000000000000000e+00  3.5367120461189400e-07 -4.3679372554534237e-03 0.0000000000000000e+00  -9.1380365106284492e-