<?xml version="1.0"?>
<VTKFile type="UnstructuredGrid"  version="0.1"  >
<UnstructuredGrid>
<Piece  NumberOfPoints="2690" NumberOfCells="4864">
<Points>
<DataArray  type="Float64"  NumberOfComponents="3"  format="ascii">-5.011204976991393 22.00243688070148 0  -5.612339612167234 21.26496367020241 0  -5.010978313015572 21.50263779398711 0  -5.010724936581012 21.0024559601349 0  -5.612555904593316 21.76500661065113 0  -6.213921304094908 21.5271812047597 0  -9 21.99999999996945 0  -8.398510642739968 21.2630097063384 0  -9 21.49999999997139 0  -9 20.99999999997333 0  -8.398549156241211 21.76300681498154 0  -7.797061806989435 21.5260073466018 0  -9 32.9999999999446 0  -8.399358957765681 32.26300172321449 0  -9 32.49999999994358 0  -9 31.99999999994255 0  -8.399397519597708 32.76300239306738 0  -7.798758429943626 32.52599913645657 0  -5.016838039278735 33.00263699366337 0  -5.534048701677776 32.2989678829074 0  -5.016599655255639 32.50298621615698 0  -5.016338911675124 32.00255464091332 0  -5.534270781012623 32.79903481290184 0  -6.051718071549971 32.59505468853681 0  -5.027635371083841 54.00252519883691 0  -5.626889881527054 54.73990471534659 0  -5.626677599447068 54.24000919817065 0  -6.225700383502445 54.47712682498908 0  -5.027874223294856 54.50270177335457 0  -5.028106336545161 55.00254728166817 0  -9 54.99999999998974 0  -8.473611118402511 54.29654497486791 0  -9 54.49999999998872 0  -9 53.99999999998769 0  -8.473644182674651 54.7965348409361 0  -7.947261923140101 54.59307286796808 0  -9 39.99999999995897 0  -8.400013414243105 40.73799417710255 0  -8.399974865829662 40.23799463309673 0  -7.799986415825558 40.47598218720628 0  -9 40.49999999996 0  -9 40.99999999996102 0  -5.020937346420669 41.00233981159737 0  -5.594047326404872 40.2703350946999 0  -5.020701757742948 40.50271517169588 0  -5.020457926920416 40.002636509453 0  -5.594264375165134 40.77029514204462 0  -6.167612382820421 40.53782444399138 0  -9 55.99999999999179 0  -8.425888744446071 56.74378370782057 0  -8.425855947366811 56.24377738126732 0  -7.851746284352137 56.48755443630847 0  -9 56.49999999999282 0  -9 56.99999999999384 0  -5.028653761201443 56.00241550130527 0  -5.60310065261802 56.74574268555837 0  -5.602888756185069 56.2457327317655 0  -6.177097509721505 56.4887516508676 0  -5.028907397466349 56.50278250447817 0  -5.029138471510069 57.00255439138208 0  -7.44608283268428 43.00137958018913 0  -6.602894260512231 43.11032463456466 0  -7.208965769005586 43.33895051281463 0  -6.971869276316037 43.67652361284134 0  -6.83999156953114 42.77273881494101 0  -6.23386394150785 42.54409794999156 0  -6.577761328921333 49.00259901073461 0  -7.420310302541649 48.89350854924256 0  -6.814677196974999 48.66500956653557 0  -7.05161412251284 48.3274126548594 0  -7.183374648059667 49.23109262276181 0  -7.788952171191522 49.45960494930416 0  -6.576822035905041 46.0024423060304 0  -7.419698386141932 45.89340807508911 0  -6.813830733027775 45.66482534206292 0  -7.05086033465634 45.32722093268854 0  -7.182670369931374 46.23101092948554 0  -7.788482723012944 46.45957023545753 0  -6.564670162755433 7.002534572924082 0  -7.411773877965406 6.893479813086722 0  -6.802868661902018 6.664943566820746 0  -7.041088019467648 6.327353218206985 0  -7.173556134137645 7.231069954766811 0  -7.782406313787376 7.459603243744747 0  -7.443482558136932 30.00136402975932 0  -6.598882551829134 30.11029052820814 0  -7.205968741766986 30.33889803464928 0  -6.968475633508741 30.67642385413906 0  -6.836376826724854 29.77274851418899 0  -6.229234604078188 29.54414597610707 0  -6.563754732266821 4.002414146402517 0  -7.411224406327602 4.109745473683659 0  -6.802229249025062 4.339536461815553 0  -7.040683782369268 4.676650628856099 0  -7.172771162898166 3.772626143646141 0  -7.7818184400971 3.542854321321558 0  -6.565600250167791 10.00255753354451 0  -7.412423548137199 10.10984128194095 0  -6.803896021656501 10.33964771622541 0  -7.042171483995267 10.67673788370945 0  -7.174146754934636 9.772753399504014 0  -7.782728942571714 9.542946532229557 0  -6.566532258649165 13.00257857650391 0  -7.412987507522804 12.89351530248985 0  -6.804547729207567 12.66498840179122 0  -7.042583940495009 12.32739911775653 0  -7.174952531504751 13.23110850147235 0  -7.783337277834913 13.45963091826023 0  -6.567466960703949 16.00261812791131 0  -7.413597015204389 15.89352661547072 0  -6.805390625629021 15.66503077399376 0  -7.043335212761924 15.32743714102604 0  -7.175653724345291 16.23111086702347 0  -7.783804836613076 16.45961842657106 0  -6.56840376598852 19.0023435328065 0  -7.414252314219544 19.10967487545723 0  -6.806426753511061 19.33939243029112 0  -7.04442872776644 19.67645604026688 0  -7.176248965942434 18.7726039195976 0  -7.784130140462225 18.54285738511066 0  -6.570896537449469 27.00225526134822 0  -7.415877819465392 27.10961939743371 0  -6.808674910449812 27.33935342583169 0  -7.046432615835113 27.67645505207871 0  -7.178118777988032 26.77250399676376 0  -7.785376840220713 26.54277323726955 0  -8.270908558809445 19.09459135722725 0  -8.027528002673222 18.81872050795139 0  -8.392043894913623 18.27143549984002 0  -8.635428613895622 18.54730633387532 0  -9 17.99999999998495 0  -8.271655961430204 27.09456347499064 0  -8.028525009716816 26.81866865066729 0  -8.392667334009083 26.27138439903569 0  -8.635802427504661 26.54728129514319 0  -9 25.99999999995395 0  -8.270609949558596 15.90687584658654 0  -8.027198762332025 16.18324852641929 0  -8.391923524844128 16.72980363310603 0  -8.635330559484075 16.45343387247407 0  -9 16.99999999998883 0  -5.743427547527755 30.09688025782419 0  -5.98632180535962 29.82050974040216 0  -5.622036165424531 29.2738606391112 0  -5.379134546329743 29.55034540220519 0  -5.01477563148491 29.00243241277804 0  -8.270329701243091 12.90687503668853 0  -8.026824883892193 13.18325246178476 0  -8.39168969029147 13.72981652093216 0  -8.635190366237801 13.45343870019456 0  -9 13.99999999999401 0  -8.270067758254493 10.09466928222479 0  -8.026406910624498 9.818808014798183 0  -8.391343470059033 9.271472852663171 0  -8.63500845643005 9.5473341486825 0  -9 8.99999999999857 0  -8.269518181061231 4.094623947814146 0  -8.02567617509499 3.818741189887769 0  -8.39089210160912 3.271423602160747 0  -8.634736287501589 3.547306884824839 0  -9 2.999999999998668 0  -8.269771881657139 6.906857273345871 0  -8.0260805403858 7.18322977153518 0  -8.391224117964224 7.729802361564548 0  -8.634911259251314 7.45343012609196 0  -9 7.999999999999485 0  -8.273415292771951 45.90682422945438 0  -8.030940380185102 46.18319442913013 0  -8.394262504729339 46.72978948053694 0  -8.636733219973845 46.45341952755069 0  -9 46.99999999997333 0  -8.273696537128332 48.90686613970374 0  -8.031315689059314 49.18323688478763 0  -8.394497218440989 49.7297967488124 0  -8.636873936359482 49.45342954847982 0  -9 49.99999999997949 0  -5.748870129598812 43.09690914527727 0  -5.991357628498686 42.82050198269908 0  -5.627679786312939 42.27377818774534 0  -5.385185339600951 42.5503125715079 0  -5.021432231897275 42.00233515946232 0  -5.736117131143215 23.91933147140352 0  -5.984225550112311 24.1868047562116 0  -5.622519699871864 24.72893453680513 0  -6.232315833003168 24.45428579048722 0  -5.374420713701389 24.46157707957861 0  -5.012773422549108 25.00242730261099 0  -8.278705866836095 52.08435778276645 0  -8.031564922468018 51.81687009846121 0  -8.392181988876306 51.27470125701011 0  -7.784406947950258 51.5493892583398 0  -8.639327770230599 51.54218878728191 0  -9 50.99999999998153 0  -5.742050065430385 38.08664997980797 0  -5.989498932757261 37.81863411122652 0  -5.627950561164996 37.27704907683398 0  -6.236965943774819 37.55062787597605 0  -5.38049364501111 37.54520212288452 0  -5.018866488845923 37.00222636894698 0  -5.740724108914545 34.91930717491405 0  -5.988483074667648 35.18676318212089 0  -5.627289506193109 35.72886308972882 0  -6.236223921115111 35.45422678075634 0  -5.37953847063655 35.46153966393121 0  -5.018407229758576 36.00232182067154 0  -7.89098563464969 50.5013052896947 0  -7.837692718187533 51.02535031836201 0  -8.445510635379618 50.75064623848186 0  -6.129805846704595 36.50240809639218 0  -6.183388720221951 37.02650266021981 0  -5.57433446420781 36.75275012017291 0  -6.183012019082827 35.97830252764201 0  -5.574118076857787 36.25272627598768 0  -5.986441344457696 25.26260804614274 0  -6.109372911788159 24.85845260452826 0  -5.499609474276275 25.13296274847172 0  -8.030692671367921 25.74669056429864 0  -7.908028481703026 26.14473182868523 0  -8.515354219728177 25.87334566735703 0  -6.951359593399776 34.37767909780261 0  -6.593766529726071 34.91596613332124 0  -6.849671712064263 35.24027552147004 0  -7.207267606777305 34.7020082064711 0  -7.463154097635835 35.02633304369893 0  -7.07073387140003 52.62586861924144 0  -7.427545610516729 52.08764172914115 0  -7.172218962835871 51.76337004774449 0  -6.815409879107578 52.30160408949625 0  -6.560064443585545 51.97734671261168 0  -6.952479618837168 38.6258584041755 0  -6.594747867825097 38.08825705626994 0  -6.850368759777918 37.76347229842467 0  -7.20809761826952 38.3010944801213 0  -7.463737121671038 37.97632559499704 0  -6.948464207994959 23.37769252962542 0  -6.590364952094917 23.91599716399968 0  -6.846631363741112 24.24031738614761 0  -7.204733508377769 23.70202954021055 0  -7.460981365582779 24.02635971619558 0  -7.886416998582815 17.50114186629474 0  -7.83527008972274 18.02200323512625 0  -8.443226372407933 17.75056425263299 0  -7.835114336762649 16.98038148120129 0  -8.44319062718465 17.25057460348249 0  -7.885135115775043 8.501169039026388 0  -7.833928618067571 9.022058009664404 0  -8.442585279383051 8.750584790190546 0  -7.93161292044909 2.416611427717951 0  -7.8567083402997 2.979729758524387 0  -8.465823352497097 2.708309185111728 0  -7.833774085708916 7.980386781321643 0  -8.442549827804006 8.250583694547187 0  -7.839972389539759 49.98045656258383 0  -8.44547489019952 50.25065634067543 0  -6.042391435260828 41.59546435771475 0  -6.138132939727114 42.06979113603131 0  -5.
[...]
<PointData  Vectors="f_27"> 
<DataArray  type="Float64"  Name="f_27"  NumberOfComponents="3" format="ascii">0.0000000000000000e+00 0.0000000000000000e+00 0.0000000000000000e+00  1.3697738843101548e-06 -7.3059006851660564e-03 0.0000000000000000e+00  0.0000000000000000e+00 0.0000000000000000e+00 0.0000000000000000e+00  0.0000000000000000e+00 0.0000000000000000e+00 0.0000000000000000e+00  -1.4359203237781196e-05 -1.0220424884950126e-02 0.0000000000000000e+00  -2.5388096220573709e-06 -1.0519356632219123e-02 0.0000000000000000e+00  0.0000000000000000e+00 0.0000000000000000e+00 0.0000000000000000e+00  5.7991227116891570e-06 -7.4385522508461912e-03 0.0000000000000000e+00  0.0000000000000000e+00 0.0000000000000000e+00 0.0000000000000000e+00  0.0000000000000000e+00 0.0000000000000000e+00 0.0000000000000000e+00  2.6791240709711269e-05 -1.0202933857216958e-02 0.0000000000000000e+00  1.4572362130871858e-05 -1.0564000527128106e-02 0.0000000000000000e+00  0.0000000000000000e+00 0.0000000000000000e+00 0.0000000000000000e+00  4.8072281165163685e-06 -7.2935477530086000e-03 0.0000000000000000e+00  0.0000000000000000e+00 0.0000000000000000e+00 0.0000000000000000e+00  0.0000000000000000e+00 0.0000000000000000e+00 0.0000000000000000e+00  2.5460296357266683e-05 -1.0188410983122840e-02 0.0000000000000000e+00  1.3397098014045116e-05 -1.0550048698166677e-02 0.0000000000000000e+00  0.0000000000000000e+00 0.0000000000000000e+00 0.0000000000000000e+00  7.9945500493028794e-08 -7.6569598899962846e-03 0.0000000000000000e+00  0.0000000000000000e+00 0.0000000000000000e+00 0.0000000000000000e+00  0.0000000000000000e+00 0.0000000000000000e+00 0.0000000000000000e+00  -8.3583137942639769e-06 -1.0228809304884070e-02 0.0000000000000000e+00  -5.3662298402795698e-07 -1.0575642071696542e-02 0.0000000000000000e+00  0.0000000000000000e+00 0.0000000000000000e+00 0.0000000000000000e+00  6.1260696886611141e-06 -7.6210847938468079e-03 0.0000000000000000e+00  2.8821196992746047e-05 -1.0196686040673628e-02 0.0000000000000000e+00  1.4039168180729233e-05 -1.0540005655589258e-02 0.0000000000000000e+00  0.0000000000000000e+00 0.0000000000000000e+00 0.0000000000000000e+00  0.0000000000000000e+00 0.0000000000000000e+00 0.0000000000000000e+00  0.0000000000000000e+00 0.0000000000000000e+00 0.0000000000000000e+00  1.3387066461288898e-06 -7.6085443171521440e-03 0.0000000000000000e+00  0.0000000000000000e+00 0.0000000000000000e+00 0.0000000000000000e+00  0.0000000000000000e+00 0.0000000000000000e+00 0.0000000000000000e+00  6.5456369085451022e-06 -1.0282917405531214e-02 0.0000000000000000e+00  5.1519009130628024e-06 -1.0561375620716114e-02 0.0000000000000000e+00  0.0000000000000000e+00 0.0000000000000000e+00 0.0000000000000000e+00  1.3005665773934391e-06 -7.2708057117530679e-03 0.0000000000000000e+00  -1.6170168263163246e-05 -1.0184105288393567e-02 0.0000000000000000e+00  -4.5373930057651485e-06 -1.0540349635110906e-02 0.0000000000000000e+00  0.0000000000000000e+00 0.0000000000000000e+00 0.0000000000000000e+00  0.0000000000000000e+00 0.0000000000000000e+00 0.0000000000000000e+00  0.0000000000000000e+00 0.0000000000000000e+00 0.0000000000000000e+00  1.0521747969823817e-05 -7.4070536745635233e-03 0.0000000000000000e+00  0.0000000000000000e+00 0.0000000000000000e+00 0.0000000000000000e+00  0.0000000000000000e+00 0.0000000000000000e+00 0.0000000000000000e+00  -2.4303765213931299e-06 -1.0297989479138198e-02 0.0000000000000000e+00  4.2363603148364175e-06 -1.0564706879257216e-02 0.0000000000000000e+00  0.0000000000000000e+00 0.0000000000000000e+00 0.0000000000000000e+00  9.9484519256883647e-06 -7.9009044207280481e-03 0.0000000000000000e+00  -6.3923982749539669e-06 -1.0224160327680533e-02 0.0000000000000000e+00  5.4659700911362604e-06 -1.0554709190980831e-02 0.0000000000000000e+00  0.0000000000000000e+00 0.0000000000000000e+00 0.0000000000000000e+00  0.0000000000000000e+00 0.0000000000000000e+00 0.0000000000000000e+00  0.0000000000000000e+00 0.0000000000000000e+00 0.0000000000000000e+00  -4.3508481639469805e-06 -7.9010571151367243e-03 0.0000000000000000e+00  1.3617096265609213e-05 -1.0223705590156744e-02 0.0000000000000000e+00  1.9246557313149612e-06 -1.0551448669924498e-02 0.0000000000000000e+00  0.0000000000000000e+00 0.0000000000000000e+00 0.0000000000000000e+00  0.0000000000000000e+00 0.0000000000000000e+00 0.0000000000000000e+00  6.2029779826573091e-06 -1.0840708795481421e-02 0.0000000000000000e+00  5.2921928878679496e-06 -1.0847391572106792e-02 0.0000000000000000e+00  4.5030653952986724e-06 -1.0849201447853677e-02 0.0000000000000000e+00  3.9293655384268328e-06 -1.0849691130927144e-02 0.0000000000000000e+00  5.1149886543285529e-06 -1.0848228695930511e-02 0.0000000000000000e+00  -1.0855509357531934e-06 -1.0807800384482836e-02 0.0000000000000000e+00  8.4286252390386059e-06 -1.0831479606640533e-02 0.0000000000000000e+00  7.5384005737824534e-06 -1.0824943116283393e-02 0.0000000000000000e+00  8.5522933089249982e-06 -1.0839047890438890e-02 0.0000000000000000e+00  8.4871246989022070e-06 -1.0832897426598214e-02 0.0000000000000000e+00  6.6332073358674722e-06 -1.0837307737447443e-02 0.0000000000000000e+00  2.0291517519123680e-06 -1.0797616090604593e-02 0.0000000000000000e+00  1.5185319251242047e-06 -1.0834390640488301e-02 0.0000000000000000e+00  2.3558332729607500e-06 -1.0840451966677095e-02 0.0000000000000000e+00  1.0318854027689035e-06 -1.0844094947320524e-02 0.0000000000000000e+00  1.5465983958708747e-06 -1.0846338954891998e-02 0.0000000000000000e+00  1.8444619500760376e-06 -1.0839156669198647e-02 0.0000000000000000e+00  -8.0706899645744686e-07 -1.0799028313313558e-02 0.0000000000000000e+00  3.7921018792087752e-06 -1.0862374668844614e-02 0.0000000000000000e+00  2.6251719943652831e-06 -1.0868195490424806e-02 0.0000000000000000e+00  3.3030732871835816e-06 -1.0871217711574911e-02 0.0000000000000000e+00  4.2705683688924600e-06 -1.0871790071228049e-02 0.0000000000000000e+00  2.2626424037269990e-06 -1.0869195149380966e-02 0.0000000000000000e+00  -1.5210605305270407e-06 -1.0832325799556283e-02 0.0000000000000000e+00  2.7230140148756557e-06 -1.0845258271018262e-02 0.0000000000000000e+00  6.4456817389958045e-06 -1.0843320099350287e-02 0.0000000000000000e+00  2.3036961429045307e-06 -1.0858076322377090e-02 0.0000000000000000e+00  3.1240978316955832e-06 -1.0851270395412276e-02 0.0000000000000000e+00  4.9331200821324336e-06 -1.0852885382433168e-02 0.0000000000000000e+00  2.8253270315375531e-06 -1.0810735815371703e-02 0.0000000000000000e+00  6.4510992178323648e-06 -1.0865923091362698e-02 0.0000000000000000e+00  7.5677164954673943e-06 -1.0871822690514206e-02 0.0000000000000000e+00  7.2804341731519526e-06 -1.0874487158770979e-02 0.0000000000000000e+00  6.6347270245341737e-06 -1.0874082992005428e-02 0.0000000000000000e+00  7.3555596509888435e-06 -1.0873354712748261e-02 0.0000000000000000e+00  1.0967074163526591e-05 -1.0838801127367242e-02 0.0000000000000000e+00  1.0802495838454650e-05 -1.0860711725684724e-02 0.0000000000000000e+00  1.0771242786840993e-05 -1.0864915332003119e-02 0.0000000000000000e+00  1.0275722233077979e-05 -1.0868319899758122e-02 0.0000000000000000e+00  8.9684664863500461e-06 -1.0868052518029896e-02 0.0000000000000000e+00  1.2068722459472440e-05 -1.0866593985694247e-02 0.0000000000000000e+00  1.6663682181765547e-05 -1.0823956467907282e-02 0.0000000000000000e+00  4.7805339871446224e-06 -1.0856529082864505e-02 0.0000000000000000e+00  4.4121977539611940e-06 -1.0862176369735736e-02 0.0000000000000000e+00  4.7044257404528619e-06 -1.0865428489648972e-02 0.0000000000000000e+00  5.8839110747055131e-06 -1.0866139489230037e-02 0.0000000000000000e+00  3.5155033789138192e-06 -1.0862381644235865e-02 0.0000000000000000e+00  -7.8502872058867053e-08 -1.0822576482912490e-02 0.0000000000000000e+00  8.1930856855322467e-06 -1.0856775967211971e-02 0.0000000000000000e+00  7.4455720512082683e-06 -1.0849917439188396e-02 0.0000000000000000e+00  8.4813700523363255e-06 -1.0864208940410725e-02 0.0000000000000000e+00  8.5874689272095449e-06 -1.0857990549741016e-02 0.0000000000000000e+00  6.3317525363023051e-06 -1.0862327389823772e-02 0.0000000000000000e+00  1.7622713592189741e-06 -1.0822433647634475e-02 0.0000000000000000e+00  1.5233613544242445e-05 -1.0854550526458884e-02 0.0000000000000000e+00  1.0668761306287329e-05 -1.0851142684716871e-02 0.0000000000000000e+00  1.4026446734186044e-05 -1.0866169453479400e-02 0.0000000000000000e+00  1.1257206812338516e-05 -1.0858200415932710e-02 0.0000000000000000e+00  1.3533210697366273e-05 -1.0862887914493002e-02 0.0000000000000000e+00  1.6799666747873969e-05 -1.0816774045744645e-02 0.0000000000000000e+00  1.0421352882818587e-05 -1.0844479876394369e-02 0.0000000000000000e+00  1.0003743187446504e-05 -1.0855119257000310e-02 0.0000000000000000e+00  1.1450393953393654e-05 -1.0856880186591025e-02 0.0000000000000000e+00  1.0479665897575503e-05 -1.0853454474637193e-02 0.0000000000000000e+00  9.1829701702965513e-06 -1.0855665980611167e-02 0.0000000000000000e+00  1.1954163123346459e-05 -1.0818048190811922e-02 0.0000000000000000e+00  4.6511488607202677e-06 -1.0173124925193599e-02 0.0000000000000000e+00  1.4335254795088139e-05 -1.0750503614734919e-02 0.0000000000000000e+00  2.2512787064051192e-05 -1.0289045945360606e-02 0.0000000000000000e+00  1.3235983601840997e-05 -7.3274657878577556e-03 0.0000000000000000e+00  0.0000000000000000e+00 0.0000000000000000e+00 0.0000000000000000e+00  6.6352433361020523e-06 -1.0179649294185342e-02 0.0000000000000000e+00  1.0599075155151894e-05 -1.0748703258611356e-02 0.0000000000000000e+00  1.5610338117064022e-05 -1.0289828544722443e-02 0.0000000000000000e+00  9.6458306481689969e-06 -7.3215815722442812e-03 0.0000000000000000e+00  0.0000000000000000e+00 0.0000000000000000e+00 0.0000000000000000e+00  4.3955748263051833e-06 -1.0186758339064950e-02 0.0000000000000000e+00  -9.7842093596555070e-07 -1.0749524385523051e-02 0.0000000000000000e+00  -8.8354875607194293e-06 -1.0356802895816615e-02 0.0000000000000000e+00  -9.2402318075865872e-06 -7.2584098585377803e-03 0.0000000000000000e+00  0.0000000000000000e+00 0.0000000000000000e+00 0.0000000000000000e+00  1.0933000522860836e-05 -1.0168962291332196e-02 0.0000000000000000e+00  8.1019400756554604e-06 -1.0742596063242871e-02 0.0000000000000000e+00  -3.5741758171505121e-06 -1.0286635475894639e-02 0.0000000000000000e+00  -6.6303056945451923e-07 -7.3214140420613562e-03 0.0000000000000000e+00  0.0000000000000000e+00 0.0000000000000000e+00 0.0000000000000000e+00  5.7153973565049939e-06 -1.0183650912707497e-02 0.0000000000000000e+00  8.6604619695912380e-07 -1.0752583881377118e-02 0.0000000000000000e+00  -5.7745406740258602e-06 -1.0299964991054858e-02 0.0000000000000000e+00  -2.2910553327548573e-06 -7.3281504779208230e-03 0.0000000000000000e+00  0.0000000000000000e+00 0.0000000000000000e+00 0.0000000000000000e+00  8.8055807952968689e-06 -1.0183313560737806e-02 0.0000000000000000e+00  1.5671434137415348e-05 -1.0755084862015216e-02 0.0000000000000000e+00  2.2800764744228266e-05 -1.0294496580632096e-02 0.0000000000000000e+00  1.4285235817860859e-05 -7.3336451309654899e-03 0.0000000000000000e+00  0.0000000000000000e+00 0.0000000000000000e+00 0.0000000000000000e+00  8.9669627546359778e-06 -1.0206580940496517e-02 0.0000000000000000e+00  1.3281058197486498e-05 -1.0763223927539407e-02 0.0000000000000000e+00  1.8831336509638493e-05 -1.0373775334501895e-02 0.0000000000000000e+00  1.6707098892574371e-05 -7.2735209359266334e-03 0.0000000000000000e+00  0.0000000000000000e+00 0.0000000000000000e+00 0.0000000000000000e+00  5.5365187515179530e-07 -1.0201897485642661e-02 0.0000000000000000e+00  -3.9174450751687926e-06 -1.0757666350272080e-02 0.0000000000000000e+00  -1.0698798623686904e-05 -1.0364182966602123e-02 0.0000000000000000e+00  -1.0513453595408041e-05 -7.2668261667562075e-03 0.0000000000000000e+00  0.0000000000000000e+00 0.0000000000000000e+00 0.0000000000000000e+00  6.7415936139633208e-06 -1.0158782008446039e-02 0.0000000000000000e+00  7.5196244865754109e-07 -1.0728540048171384e-02 0.0000000000000000e+00  -5.7792736561695997e-06 -1.0276599129475338e-02 0.0000000000000000e+00  -2.0883859701397836e-06 -7.3017967142957035e-03 0.0000000000000000e+00  0.0000000000000000e+00 0.0000000000000000e+00 0.0000000000000000e+00  4.4815619142152507e-06 -1.0160934946844724e-02 0.0000000000000000e+00  -7.8136707425510974e-07 -1.0724418897577288e-02 0.0000000000000000e+00  -8.4733005423219186e-06 -1.0332886282022870e-02 0.0000000000000000e+00  -9.0315833902077350e-06 -7.2320090093593052e-03 0.0000000000000000e+00  0.0000000000000000e+00 0.0000000000000000e+00 0.0000000000000000e+00  7.3143640065274761e-06 -1.0165217413056454e-02 0.0000000000000000e+00  3.5553077335853240e-06 -1.0736593797802646e-02 0.0000000000000000e+00  -1.0911846476606915e-05 -1.0278201985998991e-02 0.0000000000000000e+00  -3.6355770770876227e-06 -7.3152610842238397e-03 0.0000000000000000e+00  0.0000000000000000e+00 0.0000000000000000e+00 0.0000000000000000e+00  7.5588383587414799e-06 -1.0220447394818819e-02 0.0000000000000000e+00  1.4948209409205869e-05 -1.0755400051498939e-02 0.0000000000000000e+00  1.5147865390847409e-05 -1.0283748521436665e-02 0.0000000000000000e+00  1.1312959500103723e-05 -1.0815324494776348e-02 0.0000000000000000e+00  9.1911180156737027e-06 -7.3369269910639849e-03 0.0000000000000000e+00  0.0000000000000000e+00 0.0000000000000000e+00 0.0000000000000000e+00  8.0254731672585367e-06 -1.0191871493893476e-02 0.0000000000000000e+00  1.6232952208771487e-05 -1.0730562069841368e-02 0.0000000000000000e+00  2.3030875058537937e-05 -1.0264258609510827e-02 0.0000000000000000e+00  1.6631362650916262e-05 -1.0788132045857079e-02 0.0000000000000000e+00  1.3205656441650230e-05 -7.3218163209523377e-03 0.0000000000000000e+00  0.0000000000000000e+00 0.0000000000000000e+00 0.0000000000000000e+00  4.7084428759232891e-06 -1.0205673216334123e-02 0.0000000000000000e+00  4.3831346685971873e-07 -1.0741701053528240e-02 0.0000000000000000e+00  -1.1976259512578797e-05 -1.0281383586850623e-02 0.0000000000000000e+00  -2.5144075624193107e-06 -1.0801751997791110e-02 0.0000000000000000e+00  -4.9495410895046513e-06 -7.3412469826580314e-03 0.0000000000000000e+00  0.0000000000000000e+00 0.0000000000000000e+00 0.0000000000000000e+00  1.5622534094778902e-05 -1.0228165313750591e-02 0.0000000000000000e+00  2.2887443215389733e-05 -1.0746098272322238e-02 0.0000000000000000e+00  2.2504606999087682e-05 -1.0343305501443387e-02 0.0000000000000000e+00  1.6214456794683108e-05 -1.0811299920987692e-02 0.0000000000000000e+00  1.8929719510558678e-05 -7.2605094357522616e-03 0.0000000000000000e+00  0.0000000000000000e+00 0.0000000000000000e+00 0.0000000000000000e+00  1.0407722426594717e-05 -1.0386659496584781e-02 0.0000000000000000e+00  1.7642720873486218e-05 -1.0788633855669244e-02 0.0000000000000000e+00  2.6974026571355369e-05 -1.0013951121307782e-02 0.0000000000000000e+00  -8.7453527405780661e-07 -1.0399636066881900e-02 0.0000000000000000e+00  -5.1897725884107186e-06 -1.0800949976356736e-02 0.0000000000000000e+00  -2.1810795305886217e-05 -1.0027653164791102e-02 0.0000000000000000e+00  1.4551042160027399e-05 -1.0763235831019072e-02 0.0000000000000000e+00  1.6100290768512658e-06 -6.9621900298087545e-03 0.0000000000000000e+00  8.0499780424283350e-06 -1.0519578196540376e-02 0.0000000000000000e+00  1.0790936560719855e-05 -1.0815561498919943e-02 0.0000000000000000e+00  1.2318139144711010e-05 -1.0089247183237690e-02 0.0000000000000000e+00  1.2231183448417800e-05 -1.0479109331056880e-02 0.0000000000000000e+00  1.1910344449787004e-05 -1.0809703026381486e-02 0.0000000000000000e+00  1.9003579653450961e-05 -1.0094219790630224e-02 0.0000000000000000e+00  1.1121942000949564e-05 -1.0852312996025668e-02 0.0000000000000000e+00  1.2509460794838309e-05 -1.0839573099564679e-02 0.0000000000000000e+00  1.2178753890510351e-05 -1.0852536973284884e-02 0.0000000000000000e+00  1.1622098142800002e-05 -1.0854434371969182e-02 0.0000000000000000e+00  1.1108622174537970e-05 -1.0844323360305087e-02 0.0000000000000000e+00  1.0500017132254285e-05 -1.0829575709443104e-02 0.0000000000000000e+00  8.6729155780221685e-06 -1.0813048560765265e-02 0.0000000000000000e+00  1.2272454139088902e-05 -1.0836862902837400e-02 0.0000000000000000e+00  1.1789025713604165e-05 -1.0839372738667545e-02 0.0000000000000000e+00  1.2580179563656697e-05 -1.0824294607542976e-02 0.0000000000000000e+00  4.4217277944730647e-06 -1.0849089134556613e-02 0.0000000000000000e+00  5.6542968172196492e-06 -1.0835406743432275e-02 0.0000000000000000e+00  2.7627290229126270e-06 -1.0848908268106692e-02 0.0000000000000000e+00  3.6254534553254852e-06 -1.0851720952121132e-02 0.0000000000000000e+00  2.4375476004795556e-06 -1.0842101768690719e-02 0.0000000000000000e+00  7.4602044389520552e-06 -1.0859073283279725e-02 0.0000000000000000e+00  7.4855546173179448e-06 -1.0848049485937421e-02 0.0000000000000000e+00  7.0343904835334387e-06 -1.0858510851297250e-02 0.0000000000000000e+00  7.5859125937979575e-06 -1.0860623442203126e-02 0.0000000000000000e+00  5.7074582323382720e-06 -1.0845253979665834e-02 0.0000000000000000e+00  1.0022124740967135e-05 -1.0410730217096906e-02 0.0000000000000000e+00  1.7448759484936705e-05 -1.0813662270185265e-02 0.0000000000000000e+00  2.6756779065646314e-05 -1.0038573432023181e-02 0.0000000000000000e+00  -2.7340195533434037e-07 -1.0774305100631191e-02 0.0000000000000000e+00  6.6466112588886693e-07 -6.9661103213450332e-03 0.0000000000000000e+00  8.8649011605827642e-06 -1.0418197406743280e-02 0.0000000000000000e+00  1.6721976617220801e-05 -1.0819319929449255e-02 0.0000000000000000e+00  2.6393754160886362e-05 -1.0044613425104390e-02 0.0000000000000000e+00  6.4403152002245180e-06 -1.0501513122201806e-02 0.0000000000000000e+00  1.1260887063758183e-05 -1.0794114279257487e-02 0.0000000000000000e+00  6.3924342991760846e-06 -7.0480072878586972e-03 0.0000000000000000e+00  -2.3794036904944687e-06 -1.0781435865488529e-02 0.0000000000000000e+00  5.8149973292831819e-08 -6.9720225248800539e-03 0.0000000000000000e+00  5.0834167309878580e-08 -1.0749361999377231e-02 0.0000000000000000e+00  9.8411504776137534e-07 -6.9436086438104134e-03 0.0000000000000000e+00  -1.1608462522467140e-05 -1.0451750114739755e-02 0.0000000000000000e+00  -6.6427018283560810e-06 -1.0804716868586804e-02 0.0000000000000000e+00  -2.5505376595896077e-05 -1.0039633075508536e-02 0.0000000000000000e+00  4.7056775359363204e-06 -1.0857411400910190e-02 0.0000000000000000e+00  7.6655571576828901e-06 -1.0861606468191549e-02 0.0000000000000000e+00  4.4713576781747650e-06 -1.0860472957653444e-02 0.0000000000000000e+00  1.2864093549381541e-05 -1.0839417662986586e-02 0.0000000000000000e+00  1.4259034821164046e-05 -1.0839879765833997e-02 0.0000000000000000e+00  1.2195712773774044e-05 -1.0841082902652770e-02 0.0000000000000000e+00  2.0376459494618378e-06 -1.0850474630581117e-02 0.0000000000000000e+00  1.9231147475076766e-07 -1.0851157915887460e-02 0.0000000000000000e+00  2.5801821396681455e-06 -1.0852146172807569e-02 0.0000000000000000e+00  1.0660061564360184e-05 -1.0853056747377070e-02 0.0000000000000000e+00  1.2938228228685810e-05 -1.0854385044151468e-02 0.0000000000000000e+00  1.1074277140801871e-05 -1.0854537045270257e-02 0.0000000000000000e+00  -4.8474809070405958e-06 -1.0478187728479627e-02 0.0000000000000000e+00  -8.3847958540719421e-08 -1.0805268041150892e-02 0.0000000000000000e+00  -1.4618950766895372e-05 -1.0078123868127318e-02 0.0000000000000000e+00  7.3327535512715783e-06 -1.0808679528288264e-02 0.0000000000000000e+00  5.5851381324475450e-06 -1.0798207981958607e-02 0.0000000000000000e+00  5.6074272336683250e-06 -1.0848070585671034e-02 0.0000000000000000e+00  1.2923311586310860e-05 -1.0550677476296254e-02 0.0000000000000000e+00  6.3217292678449081e-06 -1.0774724176483768e-02 0.0000000000000000e+00  9.2464162072259064e-06 -1.0823657463246381e-02 0.0000000000000000e+00  6.3875654885494870e-06 -1.0802826401257943e-02 0.0000000000000000e+00  3.5743078537073299e-06 -1.0790787512226400e-02 0.0000000000000000e+00  3.55126967563