<?xml version="1.0"?>
<VTKFile type="UnstructuredGrid"  version="0.1"  >
<UnstructuredGrid>
<Piece  NumberOfPoints="2690" NumberOfCells="4864">
<Points>
<DataArray  type="Float64"  NumberOfComponents="3"  format="ascii">-5.103328770614252 22.02255509379356 0  -5.68818443334598 21.28524919486746 0  -5.101322479518846 21.5243980835086 0  -5.098867446188986 21.02263718519092 0  -5.690258681452665 21.78567465197266 0  -6.277096460397876 21.54515788231627 0  -9 21.99999999996945 0  -8.411965155194117 21.2672135576255 0  -9 21.49999999997139 0  -9 20.99999999997333 0  -8.41233254034063 21.76718755133067 0  -7.82432182211679 21.53431497000118 0  -9 32.9999999999446 0  -8.41997147243438 32.2671390212651 0  -9 32.49999999994358 0  -9 31.99999999994255 0  -8.420337974889756 32.7671464926022 0  -7.840329840471363 32.53423800022534 0  -5.156416171695353 33.02435324035709 0  -5.653083000562004 32.32046430608729 0  -5.154336409818143 32.52760440507333 0  -5.15166953123736 32.02356472939 0  -5.655240106211837 32.82109541556076 0  -6.153966001160476 32.614327092287 0  -5.260053352272778 54.02316612860381 0  -5.826997205006198 54.7595721090817 0  -5.824942995552768 54.26054764506287 0  -6.389439298299499 54.49454103849499 0  -5.262532210749026 54.52492874014892 0  -5.264593161347725 55.02335689026603 0  -9 54.99999999998974 0  -8.504546471880259 54.30008318423361 0  -9 54.49999999998872 0  -9 53.99999999998769 0  -8.504875737079679 54.79998339831144 0  -8.009492022197835 54.59999966309315 0  -9 39.99999999995897 0  -8.426199667318846 40.74206030554732 0  -8.425832870135991 40.24206611066181 0  -7.852017049452816 40.48406269844129 0  -9 40.49999999996 0  -9 40.99999999996102 0  -5.195390614375428 41.02147948534903 0  -5.740936757987877 40.29098069638317 0  -5.193322122644422 40.52501212406242 0  -5.190880196860678 40.02421809789357 0  -5.743010972946144 40.79061690882007 0  -6.290611663585765 40.55578856759941 0  -9 55.99999999999179 0  -8.461152098388693 56.74754171400782 0  -8.460827757353517 56.24747808824586 0  -7.921994866951048 56.49495661954867 0  -9 56.49999999999282 0  -9 56.99999999999384 0  -5.270026456646444 56.02208491860944 0  -5.81228121975958 56.76551015117708 0  -5.810273680395715 56.26541194889474 0  -6.350049742678942 56.5059370161477 0  -5.272658758435406 56.52567571344176 0  -5.274715893726027 57.02344495860508 0  -7.517764646199216 43.01278239912973 0  -6.713794226878616 43.12814576629771 0  -7.292240918175506 43.35229120472756 0  -7.066902470776151 43.69181578665942 0  -6.939121363069095 42.78849501599834 0  -6.360160769709374 42.5642196801961 0  -6.705269403302661 49.02418391012721 0  -7.503268617985201 48.90745929024204 0  -6.928853863140054 48.68450727565323 0  -7.152666105846524 48.34475472386946 0  -7.279480565378776 49.24709020003904 0  -7.85333604806454 49.47016843196555 0  -6.696392147832373 46.02270749622243 0  -7.497480711726094 45.90649795604924 0  -6.92089342075281 45.68275518363388 0  -7.145601821171377 45.34292039244686 0  -7.272784420174133 46.24631355241286 0  -7.848852383893398 46.46983547330398 0  -6.582001178129251 7.023468589622005 0  -7.422884175546366 6.90710604254854 0  -6.81770493451226 6.68377872672083 0  -7.053617234069631 6.344093684839944 0  -7.186984366392084 7.246786014724537 0  -7.791645434239769 7.470088369891652 0  -7.493051479736165 30.01263966291695 0  -6.675661015363161 30.127822395796 0  -7.263771208377827 30.35179759771128 0  -7.034684600823272 30.69087470491919 0  -6.904747277565684 29.78858789168649 0  -6.316112172817784 29.56466604214234 0  -6.57372299845689 4.022333152729324 0  -7.417915190928633 4.122743619765727 0  -6.811920923724721 4.357681799767829 0  -7.049960238316016 4.692958199026114 0  -7.179886788770236 3.787423404993706 0  -7.786328040634505 3.55265790139643 0  -6.590532631408774 10.02366101374179 0  -7.428837794355543 10.12363192186026 0  -6.827122943409634 10.35871476911442 0  -7.063543500538137 10.69377037220643 0  -7.192399217690782 9.788601125526226 0  -7.794602378756867 9.55351119842117 0  -6.599088565329467 13.02388224338341 0  -7.434010889348428 12.9074388282327 0  -6.833105323790615 12.68420021526245 0  -7.067329290109296 12.34452491159362 0  -7.199789393644116 13.24714725302938 0  -7.800179834300335 13.47034780259771 0  -6.607713260537261 16.02424651226393 0  -7.439654566858785 15.90754782457591 0  -6.840882707167448 15.68459225093588 0  -7.074267051670328 15.34487829819124 0  -7.20629071801789 16.24717429061302 0  -7.804529866219253 16.47023822358142 0  -6.616688585043814 19.02172212184457 0  -7.445928564646107 19.12211016969565 0  -6.850829511508645 19.35637890284044 0  -7.084754383524955 19.69117364546138 0  -7.211982583414692 18.78724297789845 0  -7.807639636904297 18.55270208353643 0  -6.640235565447736 27.02091331035404 0  -7.461289439769007 27.12160496278933 0  -6.872020447481003 27.35603064706242 0  -7.103623298783476 27.69118146658446 0  -7.229687080465704 26.78632381807538 0  -7.81946075313533 26.55192523873817 0  -8.285457631068208 19.10029927275843 0  -8.046632767719746 18.82646483905952 0  -8.403614541213734 18.27641450181788 0  -8.64247933361395 18.55024940015926 0  -9 17.99999999998495 0  -8.292525087507801 27.10004475660896 0  -8.056072625360493 26.82598797511224 0  -8.409533607572007 26.27594140610058 0  -8.646023670367569 26.55001797483044 0  -9 25.99999999995395 0  -8.282601436062512 15.91329336449061 0  -8.043483681344224 16.19177866489029 0  -8.402463884559419 16.73506845960968 0  -8.641541706698524 16.45660982969001 0  -9 16.99999999998883 0  -5.847587091503412 30.12152962514895 0  -6.081763525226146 29.84307506804291 0  -5.72696537735114 29.29897989690943 0  -5.492793045859298 29.57850222719899 0  -5.136732431996423 29.02257220617065 0  -8.280001881813897 12.91328249577654 0  -8.04001096614661 13.19181043703112 0  -8.400281551423355 13.73518377347555 0  -8.640236204123092 13.4566522154271 0  -9 13.99999999999401 0  -8.277599843956999 10.10101272584368 0  -8.036178384769233 9.827262831235942 0  -8.397107223922855 9.276752015946906 0  -8.638568316355435 9.550501922195217 0  -9 8.99999999999857 0  -8.272595236270936 4.100592112923688 0  -8.029530705618447 3.826643668119647 0  -8.393009451975256 3.276296285307831 0  -8.63609497204973 3.550249366912146 0  -9 2.999999999998668 0  -8.274889667235112 6.913115997728739 0  -8.033188001054405 7.191597728412281 0  -8.396013500348806 7.735050763185576 0  -8.637677763926686 7.456571746882314 0  -9 7.999999999999485 0  -8.309186514305566 45.91283562484634 0  -8.07893872005139 46.19130873875081 0  -8.424622320420701 46.73495986733447 0  -8.654831408618069 46.45648920241442 0  -9 46.99999999997333 0  -8.31185068471166 48.91323992648659 0  -8.082507966246842 49.19171742103329 0  -8.426874144494199 49.73503086822653 0  -8.65617555880295 49.45658649682748 0  -9 49.99999999997949 0  -5.899359425070286 43.12180898554067 0  -6.129672005102484 42.84301273463297 0  -5.7806892994479 42.29822112187284 0  -5.550392974260896 42.57821321645716 0  -5.200077430714586 42.02163254804964 0  -5.818676305499483 23.94421675564154 0  -6.061368847691037 24.20950437647556 0  -5.710915915219414 24.75397439528449 0  -6.303886805536598 24.47486965981776 0  -5.468382656618069 24.48975552440673 0  -5.117853147887666 25.02236323786521 0  -8.319239031264319 52.09000080738515 0  -8.085683569853293 51.82457124861509 0  -8.425764138076746 51.27966725898352 0  -7.851957794976916 51.55920627328351 0  -8.659366971858706 51.54509555087534 0  -9 50.99999999998153 0  -5.874815176190128 38.11127064912304 0  -6.111272872866905 37.84094781208173 0  -5.762310907246884 37.30151924351168 0  -6.347898582080804 37.57068836793449 0  -5.525855729413721 37.57314096382905 0  -5.175538088310244 37.0206217340339 0  -5.862175903819805 34.94400151751229 0  -6.101585561805383 35.2091259419043 0  -5.755988085621119 35.75330916121543 0  -6.340821171299039 35.47432231853435 0  -5.516723048168148 35.4894192553534 0  -5.171085295641476 36.02127411018637 0  -7.951268548626651 50.51068343941596 0  -7.901574854516098 51.03497394540094 0  -8.47580990885689 50.75528174397715 0  -6.241705792847296 36.52226289562257 0  -6.294826696005063 37.04633623129414 0  -5.708801185484649 36.77541935111005 0  -6.291227794513143 35.99813622601823 0  -5.706689864110482 36.27514490661232 0  -6.066933202077462 25.2844614258344 0  -6.185364222589211 24.8797104994634 0  -5.592650663505619 25.15754475088953 0  -8.057070608273722 25.75392752919918 0  -7.938207286857947 26.15292550441607 0  -8.528607537600436 25.87696763251061 0  -7.026438292628097 34.39237056884352 0  -6.683391134224406 34.93348227682733 0  -6.930530871979755 35.25580435718946 0  -7.273609759157814 34.71488382172543 0  -7.520575521509127 35.03735622013485 0  -7.18038379624516 52.64052369591287 0  -7.515917740018249 52.09998859713839 0  -7.274243813129343 51.77801730112508 0  -6.938733702609118 52.31862494553912 0  -6.69686660400192 51.99678995114634 0  -7.03710310574661 38.64041680401417 0  -6.692740395068413 38.10568435223068 0  -6.937172717353335 37.77894058209826 0  -7.281514281431773 38.3138774222628 0  -7.526128495425164 37.98728636828708 0  -6.999103723933857 23.39249093888996 0  -6.6512614735029 23.93376498002698 0  -6.901796496417831 24.25619130177408 0  -7.249674643170899 23.71507808116886 0  -7.500042673865122 24.03760178876632 0  -7.906659647780961 17.51058149551877 0  -7.857112816088527 18.03167594609666 0  -8.45350078439475 17.75522959285035 0  -7.855625557872921 16.99042219289144 0  -8.453159200323196 17.25532484068841 0  -7.894805226894109 8.51082033053255 0  -7.844674092997231 9.03216797841211 0  -8.447562795794708 8.755412471748437 0  -7.934559712548481 2.424999370225212 0  -7.860380595319486 2.988800297707277 0  -8.467429839439401 2.712531051005963 0  -7.843257556275945 7.990460263105338 0  -8.447237894076228 8.255402577654637 0  -7.902335422397551 49.99043936619963 0  -8.475456993714532 50.2553779589383 0  -6.17429842914818 41.61495093685026 0  -6.267290288169414 42.08968823437941 0  -5.
[...]
<PointData  Vectors="f_27"> 
<DataArray  type="Float64"  Name="f_27"  NumberOfComponents="3" format="ascii">0.0000000000000000e+00 0.0000000000000000e+00 0.0000000000000000e+00  6.3770052754263175e-06 -6.8753419271447768e-03 0.0000000000000000e+00  0.0000000000000000e+00 0.0000000000000000e+00 0.0000000000000000e+00  0.0000000000000000e+00 0.0000000000000000e+00 0.0000000000000000e+00  6.0729171203731815e-07 -9.6404843348782670e-03 0.0000000000000000e+00  1.4043484515180565e-05 -9.9116214872500760e-03 0.0000000000000000e+00  0.0000000000000000e+00 0.0000000000000000e+00 0.0000000000000000e+00  3.0181077294810050e-05 -6.9980314371022876e-03 0.0000000000000000e+00  0.0000000000000000e+00 0.0000000000000000e+00 0.0000000000000000e+00  0.0000000000000000e+00 0.0000000000000000e+00 0.0000000000000000e+00  5.9397033584412575e-05 -9.6061971183010082e-03 0.0000000000000000e+00  4.7099222375460789e-05 -9.9492479682999554e-03 0.0000000000000000e+00  0.0000000000000000e+00 0.0000000000000000e+00 0.0000000000000000e+00  3.0993177467208192e-05 -6.7937881480710045e-03 0.0000000000000000e+00  0.0000000000000000e+00 0.0000000000000000e+00 0.0000000000000000e+00  0.0000000000000000e+00 0.0000000000000000e+00 0.0000000000000000e+00  6.0508949059379097e-05 -9.5148802108532583e-03 0.0000000000000000e+00  5.0800285851044381e-05 -9.8588681857569409e-03 0.0000000000000000e+00  0.0000000000000000e+00 0.0000000000000000e+00 0.0000000000000000e+00  1.3395943231190854e-05 -7.1452430169386804e-03 0.0000000000000000e+00  0.0000000000000000e+00 0.0000000000000000e+00 0.0000000000000000e+00  0.0000000000000000e+00 0.0000000000000000e+00 0.0000000000000000e+00  2.0812890116122079e-05 -9.5673330845482737e-03 0.0000000000000000e+00  2.8693200615856458e-05 -9.8933533463210436e-03 0.0000000000000000e+00  0.0000000000000000e+00 0.0000000000000000e+00 0.0000000000000000e+00  2.1763450971686228e-05 -6.9640078149002084e-03 0.0000000000000000e+00  4.6210992213524883e-05 -9.3433493656767692e-03 0.0000000000000000e+00  4.0845534852254106e-05 -9.6733248866078484e-03 0.0000000000000000e+00  0.0000000000000000e+00 0.0000000000000000e+00 0.0000000000000000e+00  0.0000000000000000e+00 0.0000000000000000e+00 0.0000000000000000e+00  0.0000000000000000e+00 0.0000000000000000e+00 0.0000000000000000e+00  3.0249097163696764e-05 -6.9524869118026446e-03 0.0000000000000000e+00  0.0000000000000000e+00 0.0000000000000000e+00 0.0000000000000000e+00  0.0000000000000000e+00 0.0000000000000000e+00 0.0000000000000000e+00  4.3132702401547319e-05 -9.4454894207827624e-03 0.0000000000000000e+00  4.3411751269191458e-05 -9.7074095830969650e-03 0.0000000000000000e+00  0.0000000000000000e+00 0.0000000000000000e+00 0.0000000000000000e+00  2.6997715827375639e-05 -6.7225623941317356e-03 0.0000000000000000e+00  2.3848956510062673e-05 -9.4614522624537206e-03 0.0000000000000000e+00  3.3642703181926757e-05 -9.7976075023467977e-03 0.0000000000000000e+00  0.0000000000000000e+00 0.0000000000000000e+00 0.0000000000000000e+00  0.0000000000000000e+00 0.0000000000000000e+00 0.0000000000000000e+00  0.0000000000000000e+00 0.0000000000000000e+00 0.0000000000000000e+00  1.9887131207954886e-05 -6.8416842604493008e-03 0.0000000000000000e+00  0.0000000000000000e+00 0.0000000000000000e+00 0.0000000000000000e+00  0.0000000000000000e+00 0.0000000000000000e+00 0.0000000000000000e+00  1.7530505481827961e-05 -9.5767440687865163e-03 0.0000000000000000e+00  2.7125862241280015e-05 -9.8197750147575018e-03 0.0000000000000000e+00  0.0000000000000000e+00 0.0000000000000000e+00 0.0000000000000000e+00  3.9918964307552882e-05 -7.2108769986118657e-03 0.0000000000000000e+00  3.2372242946291741e-05 -9.3771638253544089e-03 0.0000000000000000e+00  4.4908352819134237e-05 -9.6845729445522305e-03 0.0000000000000000e+00  0.0000000000000000e+00 0.0000000000000000e+00 0.0000000000000000e+00  0.0000000000000000e+00 0.0000000000000000e+00 0.0000000000000000e+00  0.0000000000000000e+00 0.0000000000000000e+00 0.0000000000000000e+00  1.9638207766662609e-05 -7.2190640239552031e-03 0.0000000000000000e+00  3.9899234280443216e-05 -9.3778693613566621e-03 0.0000000000000000e+00  3.3907231136313396e-05 -9.6802194250252393e-03 0.0000000000000000e+00  0.0000000000000000e+00 0.0000000000000000e+00 0.0000000000000000e+00  0.0000000000000000e+00 0.0000000000000000e+00 0.0000000000000000e+00  6.0650747173285581e-05 -1.0064970000026329e-02 0.0000000000000000e+00  6.8204646813591063e-05 -1.0074065522868296e-02 0.0000000000000000e+00  6.0517127840038316e-05 -1.0073152451026248e-02 0.0000000000000000e+00  5.7583123842231311e-05 -1.0072290288808450e-02 0.0000000000000000e+00  6.4314704334218059e-05 -1.0073035475301945e-02 0.0000000000000000e+00  6.2406483308572293e-05 -1.0041075455989434e-02 0.0000000000000000e+00  7.8253082960377132e-05 -1.0006148784410121e-02 0.0000000000000000e+00  7.2911584440930988e-05 -1.0005978140165905e-02 0.0000000000000000e+00  7.9040863953294975e-05 -1.0019885375365597e-02 0.0000000000000000e+00  7.6876440053186111e-05 -1.0017719845039406e-02 0.0000000000000000e+00  7.2212666023458572e-05 -1.0013324109431001e-02 0.0000000000000000e+00  6.3960864469136117e-05 -9.9751981670995193e-03 0.0000000000000000e+00  6.8769045770034727e-05 -1.0037757240813237e-02 0.0000000000000000e+00  6.0154423043514770e-05 -1.0042370163737652e-02 0.0000000000000000e+00  6.2754519660432459e-05 -1.0047861080410477e-02 0.0000000000000000e+00  5.5596620641705307e-05 -1.0052439830960925e-02 0.0000000000000000e+00  6.4795681340969462e-05 -1.0039904415255397e-02 0.0000000000000000e+00  5.8277445151923845e-05 -9.9969321290770772e-03 0.0000000000000000e+00  6.5384588656807716e-05 -1.0328354961625879e-02 0.0000000000000000e+00  5.8818074929974631e-05 -1.0337112309465523e-02 0.0000000000000000e+00  6.2458409622314642e-05 -1.0341061088841452e-02 0.0000000000000000e+00  6.2095169644184003e-05 -1.0344620534220115e-02 0.0000000000000000e+00  6.0005302037712799e-05 -1.0336435859183465e-02 0.0000000000000000e+00  5.2844873545820176e-05 -1.0299058530340450e-02 0.0000000000000000e+00  5.6570617475355158e-05 -1.0161217671715825e-02 0.0000000000000000e+00  6.7790963679858744e-05 -1.0154436835066378e-02 0.0000000000000000e+00  5.7599174781654179e-05 -1.0170823635846909e-02 0.0000000000000000e+00  5.5471917735163286e-05 -1.0161958618953377e-02 0.0000000000000000e+00  6.2620847432058791e-05 -1.0165126031809595e-02 0.0000000000000000e+00  6.2858018953451425e-05 -1.0125860293831774e-02 0.0000000000000000e+00  7.1234825569818552e-05 -1.0361263044727696e-02 0.0000000000000000e+00  6.4179735536802523e-05 -1.0355460312429588e-02 0.0000000000000000e+00  6.7549166972983359e-05 -1.0363385231886658e-02 0.0000000000000000e+00  6.4841137901660263e-05 -1.0359501108605127e-02 0.0000000000000000e+00  6.5752483299349871e-05 -1.0358695631248497e-02 0.0000000000000000e+00  6.4104171571386867e-05 -1.0319767479473824e-02 0.0000000000000000e+00  6.8463516058521584e-05 -1.0315376997447390e-02 0.0000000000000000e+00  6.3402560925761867e-05 -1.0315368592108734e-02 0.0000000000000000e+00  6.3832619347501882e-05 -1.0319091052607450e-02 0.0000000000000000e+00  6.2362149314198291e-05 -1.0316049016238121e-02 0.0000000000000000e+00  6.7728211299684970e-05 -1.0319136321907913e-02 0.0000000000000000e+00  6.9090111330864020e-05 -1.0279229506987992e-02 0.0000000000000000e+00  6.4089248106482031e-05 -1.0285779744802168e-02 0.0000000000000000e+00  5.9141417845676050e-05 -1.0295487624166304e-02 0.0000000000000000e+00  6.1823829237339000e-05 -1.0298837883576191e-02 0.0000000000000000e+00  6.2042221828137849e-05 -1.0302527243017555e-02 0.0000000000000000e+00  5.9496572713035295e-05 -1.0293304583290315e-02 0.0000000000000000e+00  5.3774025006865574e-05 -1.0253388502468132e-02 0.0000000000000000e+00  7.3683735316975487e-05 -1.0265475831406069e-02 0.0000000000000000e+00  6.8132344878131984e-05 -1.0264739636123796e-02 0.0000000000000000e+00  7.4154097191852191e-05 -1.0278185973092222e-02 0.0000000000000000e+00  7.1726222379104481e-05 -1.0275230739822191e-02 0.0000000000000000e+00  6.7424612588753524e-05 -1.0273366780468432e-02 0.0000000000000000e+00  5.9331021763108349e-05 -1.0235446916203501e-02 0.0000000000000000e+00  8.1564479727083803e-05 -1.0235475153896771e-02 0.0000000000000000e+00  6.5812411627444288e-05 -1.0241044253938240e-02 0.0000000000000000e+00  7.4613238231848147e-05 -1.0250479471327879e-02 0.0000000000000000e+00  6.2623898726325605e-05 -1.0242159085177612e-02 0.0000000000000000e+00  7.3441456347403405e-05 -1.0251573787621393e-02 0.0000000000000000e+00  7.1234599383973785e-05 -1.0215671488421098e-02 0.0000000000000000e+00  7.8091821659104221e-05 -1.0184874871058860e-02 0.0000000000000000e+00  6.5858483280296768e-05 -1.0191890881028474e-02 0.0000000000000000e+00  7.3315549440953928e-05 -1.0194500808642695e-02 0.0000000000000000e+00  6.3981590563155666e-05 -1.0188251805058062e-02 0.0000000000000000e+00  6.8045054208432790e-05 -1.0193324669171845e-02 0.0000000000000000e+00  6.3651445283550623e-05 -1.0158930762839762e-02 0.0000000000000000e+00  4.9906681460373461e-05 -9.6064158885503011e-03 0.0000000000000000e+00  6.3120104999695996e-05 -1.0154759871892360e-02 0.0000000000000000e+00  6.9862549484208449e-05 -9.7231133346880171e-03 0.0000000000000000e+00  4.4653446620092174e-05 -6.9060630087380160e-03 0.0000000000000000e+00  0.0000000000000000e+00 0.0000000000000000e+00 0.0000000000000000e+00  5.1108405638591834e-05 -9.5468638101252768e-03 0.0000000000000000e+00  5.7767831533686841e-05 -1.0090629288915831e-02 0.0000000000000000e+00  5.9074086129992587e-05 -9.6629346183875059e-03 0.0000000000000000e+00  3.9792262888288308e-05 -6.8364774522932806e-03 0.0000000000000000e+00  0.0000000000000000e+00 0.0000000000000000e+00 0.0000000000000000e+00  5.5348093170830954e-05 -9.6341996876464237e-03 0.0000000000000000e+00  5.2692532405131981e-05 -1.0167915176096493e-02 0.0000000000000000e+00  4.3697300200277165e-05 -9.7943730924646890e-03 0.0000000000000000e+00  2.6827711376564266e-05 -6.8501806133716529e-03 0.0000000000000000e+00  0.0000000000000000e+00 0.0000000000000000e+00 0.0000000000000000e+00  6.6751205362934583e-05 -9.5171937889713103e-03 0.0000000000000000e+00  9.4681242625967627e-05 -1.0054545495894872e-02 0.0000000000000000e+00  4.4533701618345124e-05 -9.6745202936958496e-03 0.0000000000000000e+00  3.1750472758238345e-05 -6.8539827637465415e-03 0.0000000000000000e+00  0.0000000000000000e+00 0.0000000000000000e+00 0.0000000000000000e+00  5.3537884801653907e-05 -9.6484878310269754e-03 0.0000000000000000e+00  5.1327904308041005e-05 -1.0187726318289214e-02 0.0000000000000000e+00  4.3749195568636681e-05 -9.7560351820906183e-03 0.0000000000000000e+00  3.1953651526075797e-05 -6.9328258408223910e-03 0.0000000000000000e+00  0.0000000000000000e+00 0.0000000000000000e+00 0.0000000000000000e+00  5.5646690630935384e-05 -9.6674246494901674e-03 0.0000000000000000e+00  6.4308043300111294e-05 -1.0212399510028941e-02 0.0000000000000000e+00  7.0078618718058533e-05 -9.7778373790771353e-03 0.0000000000000000e+00  4.6855004903712295e-05 -6.9639717226580499e-03 0.0000000000000000e+00  0.0000000000000000e+00 0.0000000000000000e+00 0.0000000000000000e+00  5.5337484338686320e-05 -9.7162168491120287e-03 0.0000000000000000e+00  6.1537330510220541e-05 -1.0245307234399035e-02 0.0000000000000000e+00  6.5532468785767199e-05 -9.8738385193797400e-03 0.0000000000000000e+00  4.8121005672939402e-05 -6.9350065827708512e-03 0.0000000000000000e+00  0.0000000000000000e+00 0.0000000000000000e+00 0.0000000000000000e+00  4.8739507947682697e-05 -9.7017570663510723e-03 0.0000000000000000e+00  4.6550784907549349e-05 -1.0228491729879354e-02 0.0000000000000000e+00  3.9224253031914014e-05 -9.8510284487395537e-03 0.0000000000000000e+00  2.3686017133801888e-05 -6.9125699700646201e-03 0.0000000000000000e+00  0.0000000000000000e+00 0.0000000000000000e+00 0.0000000000000000e+00  5.5451208535857346e-05 -9.3832912704409788e-03 0.0000000000000000e+00  5.4607512988219287e-05 -9.9271243910666052e-03 0.0000000000000000e+00  4.8023744420920242e-05 -9.5073744235513735e-03 0.0000000000000000e+00  3.3614939253121270e-05 -6.6763006297096156e-03 0.0000000000000000e+00  0.0000000000000000e+00 0.0000000000000000e+00 0.0000000000000000e+00  5.9124951375878060e-05 -9.3689750463596226e-03 0.0000000000000000e+00  5.7382038350448468e-05 -9.9053437578737556e-03 0.0000000000000000e+00  4.8700985244838389e-05 -9.5416840980742362e-03 0.0000000000000000e+00  3.0297838425669906e-05 -6.5950820691377064e-03 0.0000000000000000e+00  0.0000000000000000e+00 0.0000000000000000e+00 0.0000000000000000e+00  6.5742214343686241e-05 -9.4281404015662713e-03 0.0000000000000000e+00  9.4193177269444902e-05 -9.9685449949236428e-03 0.0000000000000000e+00  3.9028450728583058e-05 -9.5898503334354290e-03 0.0000000000000000e+00  3.1039828820534169e-05 -6.7644183180681494e-03 0.0000000000000000e+00  0.0000000000000000e+00 0.0000000000000000e+00 0.0000000000000000e+00  7.2141619368256714e-05 -9.6066654592327754e-03 0.0000000000000000e+00  9.6412284179703937e-05 -1.0121239854004883e-02 0.0000000000000000e+00  5.6736903118115143e-05 -9.6398579457325252e-03 0.0000000000000000e+00  6.9129057001143153e-05 -1.0175780317672443e-02 0.0000000000000000e+00  4.1555601179920750e-05 -6.8267395811170114e-03 0.0000000000000000e+00  0.0000000000000000e+00 0.0000000000000000e+00 0.0000000000000000e+00  5.5975708879113949e-05 -9.3801123402889909e-03 0.0000000000000000e+00  6.6346695672387634e-05 -9.8934548290010929e-03 0.0000000000000000e+00  7.1024600787147018e-05 -9.4683064388540791e-03 0.0000000000000000e+00  7.0529045338664628e-05 -9.9482216840670705e-03 0.0000000000000000e+00  4.5218855476466785e-05 -6.6698718102148231e-03 0.0000000000000000e+00  0.0000000000000000e+00 0.0000000000000000e+00 0.0000000000000000e+00  7.0520095518459687e-05 -9.5048694917676726e-03 0.0000000000000000e+00  8.9719551089356535e-05 -1.0001854944414927e-02 0.0000000000000000e+00  3.0653419404477259e-05 -9.6208670977821330e-03 0.0000000000000000e+00  5.9099123187085212e-05 -1.0062184895569344e-02 0.0000000000000000e+00  3.2473471999081894e-05 -6.8330636649224048e-03 0.0000000000000000e+00  0.0000000000000000e+00 0.0000000000000000e+00 0.0000000000000000e+00  8.0488339894281753e-05 -9.5323304343621455e-03 0.0000000000000000e+00  1.0637888096726542e-04 -1.0029032073543115e-02 0.0000000000000000e+00  6.0675223659682393e-05 -9.6259664874309789e-03 0.0000000000000000e+00  7.4183368742992444e-05 -1.0092265833346343e-02 0.0000000000000000e+00  4.8875241855442651e-05 -6.6677732659164348e-03 0.0000000000000000e+00  0.0000000000000000e+00 0.0000000000000000e+00 0.0000000000000000e+00  6.3211880343523206e-05 -9.5752824401192874e-03 0.0000000000000000e+00  7.1537244719312472e-05 -9.9537705902713290e-03 0.0000000000000000e+00  7.2966757402465892e-05 -9.2187506552667674e-03 0.0000000000000000e+00  1.3930419141092047e-05 -9.6922128700700719e-03 0.0000000000000000e+00  3.8253041150651017e-05 -1.0067750422095668e-02 0.0000000000000000e+00  -2.6862587988063835e-05 -9.3421038543949099e-03 0.0000000000000000e+00  5.5535915455593807e-05 -1.0036294936764761e-02 0.0000000000000000e+00  -1.8043688270764200e-05 -6.4533661383079461e-03 0.0000000000000000e+00  2.5268840937534773e-05 -9.8847290111503568e-03 0.0000000000000000e+00  5.3188722488191547e-05 -1.0167504045787160e-02 0.0000000000000000e+00  2.1143470241128647e-06 -9.4920084037851266e-03 0.0000000000000000e+00  5.5487380881041176e-05 -9.8391671881724371e-03 0.0000000000000000e+00  5.9312791098918277e-05 -1.0152962182257468e-02 0.0000000000000000e+00  5.9245605004271934e-05 -9.4712186620765672e-03 0.0000000000000000e+00  6.7626806927928101e-05 -1.0135987063311402e-02 0.0000000000000000e+00  7.9843604481154233e-05 -1.0123140415615024e-02 0.0000000000000000e+00  6.9068084456852600e-05 -1.0134818884991056e-02 0.0000000000000000e+00  6.8882012928945507e-05 -1.0136409436344309e-02 0.0000000000000000e+00  6.2723043756214271e-05 -1.0124868628313098e-02 0.0000000000000000e+00  6.9343106482626363e-05 -9.9708323252371122e-03 0.0000000000000000e+00  6.4097882457311983e-05 -9.9645824831265297e-03 0.0000000000000000e+00  7.1122968679754019e-05 -9.9846686855251648e-03 0.0000000000000000e+00  7.3557547353440974e-05 -9.9812826609290781e-03 0.0000000000000000e+00  7.2850879620389394e-05 -9.9671512386956835e-03 0.0000000000000000e+00  6.2199868952732528e-05 -1.0101977887976255e-02 0.0000000000000000e+00  7.4455124962265841e-05 -1.0089772816929833e-02 0.0000000000000000e+00  6.1488329108137083e-05 -1.0103364869935828e-02 0.0000000000000000e+00  6.2375312183605936e-05 -1.0106411481147375e-02 0.0000000000000000e+00  5.5643174564632053e-05 -1.0099493440255668e-02 0.0000000000000000e+00  6.2332572119309514e-05 -1.0219855639396810e-02 0.0000000000000000e+00  7.3794100343326264e-05 -1.0210469671806185e-02 0.0000000000000000e+00  6.3846306708584242e-05 -1.0219249322684568e-02 0.0000000000000000e+00  6.3577153267135845e-05 -1.0219595793856244e-02 0.0000000000000000e+00  5.6715511659700396e-05 -1.0203438688724959e-02 0.0000000000000000e+00  6.0801810512705850e-05 -9.8375321048615166e-03 0.0000000000000000e+00  7.0644423270297985e-05 -1.0218219917600017e-02 0.0000000000000000e+00  7.2734732539661334e-05 -9.4838403805423011e-03 0.0000000000000000e+00  5.4256315784426627e-05 -1.0185100052793501e-02 0.0000000000000000e+00  3.4475417644324409e-05 -6.5741854176951586e-03 0.0000000000000000e+00  5.8279579684098204e-05 -9.8989749022008952e-03 0.0000000000000000e+00  6.8492075724968147e-05 -1.0278444577747929e-02 0.0000000000000000e+00  7.2129958247865443e-05 -9.5415621530897023e-03 0.0000000000000000e+00  5.6557438726215677e-05 -9.9993893382884919e-03 0.0000000000000000e+00  6.1476732313661147e-05 -1.0277965802115086e-02 0.0000000000000000e+00  3.7762006309924394e-05 -6.7183828166385061e-03 0.0000000000000000e+00  4.9749731776032302e-05 -1.0246229459837162e-02 0.0000000000000000e+00  3.2934876690462163e-05 -6.6268556172222976e-03 0.0000000000000000e+00  5.8333068150447727e-05 -9.9220944594714047e-03 0.0000000000000000e+00  3.6725376044735151e-05 -6.3496592364877813e-03 0.0000000000000000e+00  1.0666829678835155e-05 -9.7157774882847096e-03 0.0000000000000000e+00  4.6758571236608812e-05 -1.0046262171187740e-02 0.0000000000000000e+00  -1.4395992469792696e-05 -9.3234267231985003e-03 0.0000000000000000e+00  5.5269287211102539e-05 -1.0214163411980589e-02 0.0000000000000000e+00  5.9981726936037197e-05 -1.0220638628296086e-02 0.0000000000000000e+00  5.7869946318957187e-05 -1.0217399296329971e-02 0.0000000000000000e+00  7.1136719003405403e-05 -9.9928801069087726e-03 0.0000000000000000e+00  7.1960034932992719e-05 -9.9960402745026596e-03 0.0000000000000000e+00  7.0749768349043403e-05 -9.9897246150213517e-03 0.0000000000000000e+00  5.2800063120073393e-05 -1.0109261542228661e-02 0.0000000000000000e+00  5.3241827288442687e-05 -1.0108240683201271e-02 0.0000000000000000e+00  5.6592669425311533e-05 -1.0109861157827001e-02 0.0000000000000000e+00  5.9853494806113188e-05 -1.0131098318915689e-02 0.0000000000000000e+00  6.3559542431945734e-05 -1.0133387487284470e-02 0.0000000000000000e+00  6.3496330485279283e-05 -1.0133758146247758e-02 0.0000000000000000e+00  1.6512040154886368e-05 -9.8220836120957826e-03 0.0000000000000000e+00  4.7918761526830505e-05 -1.0127862057112816e-02 0.0000000000000000e+00  -1.7045138563865880e-05 -9.4339923515772851e-03 0.0000000000000000e+00  6.1444591983048387e-05 -1.0036665569821064e-02 0.0000000000000000e+00  7.4118673657539363e-05 -1.0029693616604576e-02 0.0000000000000000e+00  6.3152678375238668e-05 -1.0076677458209737e-02 0.0000000000000000e+00  7.1848769486594486e-05 -9.7516287609738118e-03 0.0000000000000000e+00  6.7937675825751085e-05 -9.9572445958977691e-03 0.0000000000000000e+00  7.4630413758284303e-05 -1.0006998112257992e-02 0.0000000000000000e+00  5.7199882350599952e-05 -1.0008883453119045e-02 0.0000000000000000e+00  5.8421283596369629e-05 -9.9907400589318105e-03 0.0000000000000000e+00  5.7445291770147617e-05 -1.0044397100158682e-02 0.0000