<?xml version="1.0"?>
<VTKFile type="UnstructuredGrid"  version="0.1"  >
<UnstructuredGrid>
<Piece  NumberOfPoints="2530" NumberOfCells="4544">
<Points>
<DataArray  type="Float64"  NumberOfComponents="3"  format="ascii">-0.005 0.02899999999991747 0  -0.005567606561449265 0.02972952735170602 0  -0.005567606561449265 0.02922952735170672 0  -0.006135213122898529 0.02945905470349596 0  -0.005 0.02949999999991678 0  -0.005 0.02999999999991609 0  -0.008999999999999999 0.02999999999991609 0  -0.008477881325601233 0.02929081058473642 0  -0.008999999999999999 0.02949999999991678 0  -0.008999999999999999 0.02899999999991747 0  -0.008477881325601233 0.02979081058473573 0  -0.007955762651202469 0.02958162116955536 0  -0.008999999999999999 0.05699999999999127 0  -0.008455575182696982 0.05771508614433647 0  -0.008455575182696982 0.05721508614433456 0  -0.007911150365393967 0.05743017228867785 0  -0.008999999999999999 0.05749999999999318 0  -0.008999999999999999 0.05799999999999508 0  -0.006562500000003323 0.04699999999996404 0  -0.007410380031513026 0.04710817040743875 0  -0.006801005031513838 0.04733733707410809 0  -0.007039510063024354 0.04767467414825214 0  -0.007171875000002511 0.0467708333332947 0  -0.007781250000001699 0.04654166666662536 0  -0.006562499999996975 0.007999999999982715 0  -0.007410380031513406 0.007891829592506899 0  -0.006801005031512716 0.007662662925842622 0  -0.007039510063028456 0.007325325851702528 0  -0.007171874999997664 0.008229166666646992 0  -0.007781249999998355 0.008458333333311269 0  -0.006562499999996577 0.01099999999997411 0  -0.007410380031513544 0.01110817040744999 0  -0.006801005031512696 0.01133733707411394 0  -0.007039510063028815 0.01167467414825377 0  -0.007171874999997425 0.01077083333331016 0  -0.007781249999998272 0.01054166666664622 0  -0.005 0.02399999999993442 0  -0.005590674212597458 0.02326230314954376 0  -0.005 0.02349999999993588 0  -0.005 0.02299999999993733 0  -0.005590674212597458 0.02376230314954231 0  -0.006181348425194916 0.0235246062991502 0  -0.005 0.02099999999994222 0  -0.005564630812322937 0.0217315610722294 0  -0.005564630812322937 0.02123156107223086 0  -0.006129261624645875 0.0214631221445195 0  -0.005 0.02149999999994076 0  -0.005 0.0219999999999393 0  -0.008999999999999999 0.01999999999994686 0  -0.008409325787402531 0.01926230314955595 0  -0.008999999999999999 0.01949999999994807 0  -0.008999999999999999 0.01899999999994928 0  -0.008409325787402531 0.01976230314955475 0  -0.007818651574805061 0.01952460629916263 0  -0.008999999999999999 0.02499999999992978 0  -0.008409325787402541 0.02573769685032071 0  -0.008409325787402541 0.02523769685032191 0  -0.007818651574805081 0.02547539370071405 0  -0.008999999999999999 0.02549999999992857 0  -0.008999999999999999 0.02599999999992736 0  -0.008999999999999999 0.01599999999995916 0  -0.008409325787402512 0.01526230314956849 0  -0.008999999999999999 0.01549999999996053 0  -0.008999999999999999 0.0149999999999619 0  -0.008409325787402512 0.01576230314956713 0  -0.007818651574805024 0.01552460629917509 0  -0.008999999999999999 0.01799999999995125 0  -0.008435915727826615 0.01725427993967504 0  -0.008999999999999999 0.01749999999995307 0  -0.008999999999999999 0.01699999999995488 0  -0.008435915727826615 0.01775427993967323 0  -0.007871831455653231 0.0175085598793952 0  -0.008999999999999999 0.02699999999992539 0  -0.008434239959724898 0.02774706184850321 0  -0.008434239959724898 0.02724706184850503 0  -0.007868479919449797 0.02749412369708466 0  -0.008999999999999999 0.02749999999992357 0  -0.008999999999999999 0.02799999999992175 0  -0.008999999999999999 0.01399999999996497 0  -0.008437765310767197 0.0132645357198448 0  -0.008999999999999999 0.01349999999996647 0  -0.008999999999999999 0.01299999999996796 0  -0.008437765310767197 0.0137645357198433 0  -0.007875530621534396 0.01352907143972163 0  -0.005 0.002999999999993196 0  -0.005590674212597853 0.003737696850384681 0  -0.005590674212597853 0.003237696850385873 0  -0.006181348425195706 0.00347539370077855 0  -0.005 0.003499999999992004 0  -0.005 0.003999999999990813 0  -0.005 0.004999999999989164 0  -0.005559084057905018 0.005728935712846076 0  -0.005559084057905018 0.005228935712846881 0  -0.006118168115810037 0.005457871425704597 0  -0.005 0.00549999999998836 0  -0.005 0.005999999999987554 0  -0.005 0.05299999999997999 0  -0.005590674212599118 0.05373769685037712 0  -0.005590674212599118 0.05323769685037585 0  -0.006181348425198237 0.05347539370077171 0  -0.005 0.05349999999998126 0  -0.005 0.05399999999998254 0  -0.008999999999999999 0.05199999999997907 0  -0.008409325787400907 0.05126230314958195 0  -0.008999999999999999 0.0514999999999778 0  -0.008999999999999999 0.05099999999997653 0  -0.008409325787400907 0.05176230314958322 0  -0.007818651574801817 0.05152460629918738 0  -0.005 0.03699999999993814 0  -0.005590674212599064 0.03626230314954104 0  -0.005 0.03649999999993686 0  -0.005 0.03599999999993558 0  -0.005590674212599064 0.03676230314954232 0  -0.006181348425198127 0.03652460629914649 0  -0.005 0.03799999999993905 0  -0.005590674212599059 0.03873769685033618 0  -0.005590674212599059 0.0382376968503349 0  -0.006181348425198119 0.03847539370073075 0  -0.005 0.03849999999994033 0  -0.005 0.0389999999999416 0  -0.008999999999999999 0.04499999999995907 0  -0.008409325787400921 0.04426230314956281 0  -0.008999999999999999 0.04449999999995852 0  -0.008999999999999999 0.04399999999995796 0  -0.008409325787400921 0.04476230314956336 0  -0.007818651574801844 0.04452460629916766 0  -0.005 0.05499999999998635 0  -0.005561924071815199 0.05574035198473451 0  -0.005561924071815199 0.05524035198473292 0  -0.006123848143630398 0.05548070396947949 0  -0.005 0.05549999999998795 0  -0.005 0.05599999999998954 0  -0.008999999999999999 0.04999999999997271 0  -0.008437330811979935 0.04925705943891855 0  -0.008999999999999999 0.04949999999997112 0  -0.008999999999999999 0.04899999999996952 0  -0.008437330811979935 0.04975705943892015 0  -0.00787466162395987 0.04951411887786759 0  -0.005 0.03499999999993177 0  -0.005554118008684467 0.03427588870688815 0  -0.005 0.03449999999993018 0  -0.005 0.03399999999992859 0  -0.005554118008684467 0.03477588870688975 0  -0.006108236017368934 0.03455177741384772 0  -0.005 0.03999999999994542 0  -0.005565787062146483 0.04074708348495108 0  -0.005565787062146483 0.0402470834849495 0  -0.006131574124292967 0.04049416696995358 0  -0.005 0.04049999999994701 0  -0.005 0.04099999999994859 0  -0.008999999999999999 0.04299999999995415 0  -0.008434212937853522 0.04225291651494782 0  -0.008999999999999999 0.04249999999995224 0  -0.008999999999999999 0.04199999999995033 0  -0.008434212937853522 0.04275291651494972 0  -0.007868425875707045 0.0425058330299453 0  -0.008249816699198017 0.05835749671693449 0  -0.008080483532295991 0.05789383450280617 0  -0.008624908349599008 0.05817874835846479 0  -0.005 0.05699999999999127 0  -0.005564814814815426 0.05763425925925437 0  -0.005564814814815426 0.05713425925925246 0  -0.006129629629630853 0.05726851851851365 0  -0.005 0.05749999999999318 0  -0.005 0.05799999999999508 0  -0.007812500000000279 0.05881250000000175 0  -0.007487215909092686 0.05955539772727215 0  -0.007906250000003019 0.05940625000000088 0  -0.008000000000005759 0.06 0  -0.007393465909089946 0.05896164772727303 0  -0.006974431818179612 0.0591107954545443 0  -0.008269129548671622 0.01109390078343537 0  -0.008025189774334947 0.0108177837250408 0  -0.008390624999999135 0.01027083333331175 0  -0.008634564774335812 0.01054695039170632 0  -0.008999999999999999 0.009999999999977279 0  -0.008269129548671525 0.007906099216521786 0  -0.00802518977433494 0.008182216274916528 0  -0.008390624999999177 0.008729166666645676 0  -0.008634564774335763 0.008453049608250935 0  -0.008999999999999999 0.008999999999980083 0  -0.008269129548669827 0.04709390078342088 0  -0.008025189774335762 0.04681778372502312 0  -0.008390625000000849 0.04627083333329277 0  -0.008634564774334913 0.04654695039169052 0  -0.008999999999999999 0.04599999999996016 0  -0.008273872863797757 0.03191632356681653 0  -0.008025109529492163 0.03218405924682916 0  -0.008388173097593283 0.03272589746338432 0  -0.007776346195186568 0.03245179492684179 0  -0.008636936431898879 0.03245816178337169 0  -0.008999999999999999 0.03299999999992685 0  -0.008017414784897241 0.03353452586113938 0  -0.007896880490041905 0.03299316039399058 0  -0.00850870739244862 0.03326726293053311 0  -0.007057671392325 0.03137590312127503 0  -0.007417008793755784 0.03191384902405841 0  -0.007160048097594804 0.03223839746338272 0  -0.00680071069616402 0.03170045156059935 0  -0.006543750000003041 0.03202499999992366 0  -0.007883928571428122 0.00949999999997868 0  -0.007832589285713197 0.01002083333331245 0  -0.00844196428571406 0.009749999999977979 0  -0.007832589285713239 0.008979166666644976 0  -0.00844196428571406 0.009249999999979382 0  -0.007040819314031163 0.03285586844587998 0  -0.007408582754608865 0.03265383168636089 0  -0.006792284657017102 0.03244043422290183 0  -0.005872353521460591 0.05810919245179558 0  -0.006000991575545722 0.05768885548515462 0  -0.005436176760730296 0.05805459622589533 0  -0.00786502184884123 0.04771008739533377 0  -0.007823135924421465 0.04712587703097956 0  -0.007452265955932792 0.04769238077179296 0  -0.007865021848844505 0.007289912604609198 0  -0.00782313592442143 0.007874122968960234 0  -0.007452265955936481 0.007307619228155863 0  -0.007865021848844829 0.01171008739534793 0  -0.007823135924421552 0.01112587703099708 0  -0.007452265955936822 0.01169238077180085 0  -0.008184288543895116 0.02249999999993832 0  -0.007988733012405148 0.02298711832054615 0  -0.007383909739089816 0.02298711832054615 0  -0.007793177480915178 0.02347423664115397 0  -0.007579465270579786 0.02249999999993833 0  -0.006974641997264455 0.02249999999993833 0  -0.007988733012405137 0.02201288167933051 0  -0.007383909739089808 0.02201288167933051 0  -0.007793177480915159 0.02152576335872269 0  -0.005819248789178329 0.02649
[...]
<PointData  Vectors="f_23"> 
<DataArray  type="Float64"  Name="f_23"  NumberOfComponents="3" format="ascii">0.0000000000000000e+00 0.0000000000000000e+00 0.0000000000000000e+00  1.1203877811279771e-09 -4.0518855603208798e-03 0.0000000000000000e+00  2.1337162643750379e-09 -5.8972512632652708e-03 0.0000000000000000e+00  1.2935327870219231e-09 -6.0887929036299686e-03 0.0000000000000000e+00  0.0000000000000000e+00 0.0000000000000000e+00 0.0000000000000000e+00  0.0000000000000000e+00 0.0000000000000000e+00 0.0000000000000000e+00  0.0000000000000000e+00 0.0000000000000000e+00 0.0000000000000000e+00  -1.7938909666550153e-09 -4.2416542869022512e-03 0.0000000000000000e+00  0.0000000000000000e+00 0.0000000000000000e+00 0.0000000000000000e+00  0.0000000000000000e+00 0.0000000000000000e+00 0.0000000000000000e+00  -7.2057775463376921e-11 -5.8438111634841194e-03 0.0000000000000000e+00  -2.3368874194426348e-09 -6.0635978693998772e-03 0.0000000000000000e+00  0.0000000000000000e+00 0.0000000000000000e+00 0.0000000000000000e+00  6.5883359330788712e-09 -4.0306128094295731e-03 0.0000000000000000e+00  -2.1116018327087364e-07 -5.8943933016511844e-03 0.0000000000000000e+00  -2.2245306002396488e-07 -6.0779519573778288e-03 0.0000000000000000e+00  0.0000000000000000e+00 0.0000000000000000e+00 0.0000000000000000e+00  0.0000000000000000e+00 0.0000000000000000e+00 0.0000000000000000e+00  -1.7866000724476708e-09 -6.2806558133807946e-03 0.0000000000000000e+00  -3.5374297700616782e-09 -6.2883697522108494e-03 0.0000000000000000e+00  4.1931769800767834e-09 -6.2898264343747290e-03 0.0000000000000000e+00  7.1058681350163580e-09 -6.2893722259230126e-03 0.0000000000000000e+00  -6.6305347593627719e-09 -6.2881915787750039e-03 0.0000000000000000e+00  -6.1474740224249749e-09 -6.2583566809739357e-03 0.0000000000000000e+00  1.5989212312122328e-09 -6.2810937471729179e-03 0.0000000000000000e+00  9.9243725160325789e-10 -6.2885080064759733e-03 0.0000000000000000e+00  -2.5341929374055300e-09 -6.2898559622121004e-03 0.0000000000000000e+00  -1.9416694929629431e-09 -6.2895681306749706e-03 0.0000000000000000e+00  5.0260032531975792e-09 -6.2883812088338070e-03 0.0000000000000000e+00  -7.0877782013015223e-10 -6.2568131203635377e-03 0.0000000000000000e+00  -1.8244622449364156e-09 -6.2811582955555074e-03 0.0000000000000000e+00  -5.9708650488558630e-09 -6.2884635293033453e-03 0.0000000000000000e+00  -3.3009243327035557e-09 -6.2898710594883542e-03 0.0000000000000000e+00  -3.7781423691795216e-09 -6.2893607486679964e-03 0.0000000000000000e+00  -3.6700322055846035e-09 -6.2887650882350937e-03 0.0000000000000000e+00  -8.1932746700858627e-09 -6.2612561307832278e-03 0.0000000000000000e+00  0.0000000000000000e+00 0.0000000000000000e+00 0.0000000000000000e+00  2.5918227767198999e-09 -4.1854115195394184e-03 0.0000000000000000e+00  0.0000000000000000e+00 0.0000000000000000e+00 0.0000000000000000e+00  0.0000000000000000e+00 0.0000000000000000e+00 0.0000000000000000e+00  5.3292998620222477e-09 -5.9032449265841785e-03 0.0000000000000000e+00  2.9772378141178886e-09 -6.0798564363491112e-03 0.0000000000000000e+00  0.0000000000000000e+00 0.0000000000000000e+00 0.0000000000000000e+00  3.7130576783973715e-09 -4.2370008012912160e-03 0.0000000000000000e+00  5.6486561988099496e-09 -5.9019951271126175e-03 0.0000000000000000e+00  7.3105361607067474e-09 -6.0910780091150592e-03 0.0000000000000000e+00  0.0000000000000000e+00 0.0000000000000000e+00 0.0000000000000000e+00  0.0000000000000000e+00 0.0000000000000000e+00 0.0000000000000000e+00  0.0000000000000000e+00 0.0000000000000000e+00 0.0000000000000000e+00  2.2976411331856349e-10 -4.1683533940730100e-03 0.0000000000000000e+00  0.0000000000000000e+00 0.0000000000000000e+00 0.0000000000000000e+00  0.0000000000000000e+00 0.0000000000000000e+00 0.0000000000000000e+00  1.9938740084352056e-09 -5.9026747237863201e-03 0.0000000000000000e+00  5.7552666122717474e-10 -6.0812317188910199e-03 0.0000000000000000e+00  0.0000000000000000e+00 0.0000000000000000e+00 0.0000000000000000e+00  4.4162350295351419e-10 -4.2144821844785898e-03 0.0000000000000000e+00  -2.4539387967632323e-09 -5.9005944580465160e-03 0.0000000000000000e+00  -3.1750587222304620e-09 -6.0841132202489948e-03 0.0000000000000000e+00  0.0000000000000000e+00 0.0000000000000000e+00 0.0000000000000000e+00  0.0000000000000000e+00 0.0000000000000000e+00 0.0000000000000000e+00  0.0000000000000000e+00 0.0000000000000000e+00 0.0000000000000000e+00  5.1311151583140429e-09 -4.1817147517190026e-03 0.0000000000000000e+00  0.0000000000000000e+00 0.0000000000000000e+00 0.0000000000000000e+00  0.0000000000000000e+00 0.0000000000000000e+00 0.0000000000000000e+00  5.8422982374204021e-09 -5.8918889257752989e-03 0.0000000000000000e+00  6.8003076892816833e-09 -6.0718432236402031e-03 0.0000000000000000e+00  0.0000000000000000e+00 0.0000000000000000e+00 0.0000000000000000e+00  3.9349258710711180e-10 -4.1838838389002360e-03 0.0000000000000000e+00  0.0000000000000000e+00 0.0000000000000000e+00 0.0000000000000000e+00  0.0000000000000000e+00 0.0000000000000000e+00 0.0000000000000000e+00  -1.8401811066788156e-09 -5.8941105237143411e-03 0.0000000000000000e+00  -1.1272103077685190e-09 -6.0833499676446598e-03 0.0000000000000000e+00  0.0000000000000000e+00 0.0000000000000000e+00 0.0000000000000000e+00  -3.0921669132131551e-09 -4.3613869689404002e-03 0.0000000000000000e+00  -2.0007937206094614e-09 -5.8569183555595662e-03 0.0000000000000000e+00  -5.9909844206755164e-09 -6.0740888338441977e-03 0.0000000000000000e+00  0.0000000000000000e+00 0.0000000000000000e+00 0.0000000000000000e+00  0.0000000000000000e+00 0.0000000000000000e+00 0.0000000000000000e+00  0.0000000000000000e+00 0.0000000000000000e+00 0.0000000000000000e+00  1.0993732360042956e-09 -4.0880440322622240e-03 0.0000000000000000e+00  0.0000000000000000e+00 0.0000000000000000e+00 0.0000000000000000e+00  0.0000000000000000e+00 0.0000000000000000e+00 0.0000000000000000e+00  4.6666987402293067e-09 -5.8877513008154560e-03 0.0000000000000000e+00  3.1903847239390198e-09 -6.0735717797077262e-03 0.0000000000000000e+00  0.0000000000000000e+00 0.0000000000000000e+00 0.0000000000000000e+00  -4.7112540021369414e-10 -4.2132718973503002e-03 0.0000000000000000e+00  1.6284025722718784e-09 -5.9050344700514552e-03 0.0000000000000000e+00  1.9182850062360230e-10 -6.0849110670673145e-03 0.0000000000000000e+00  0.0000000000000000e+00 0.0000000000000000e+00 0.0000000000000000e+00  0.0000000000000000e+00 0.0000000000000000e+00 0.0000000000000000e+00  0.0000000000000000e+00 0.0000000000000000e+00 0.0000000000000000e+00  -2.5693543162064035e-09 -4.0669652126894777e-03 0.0000000000000000e+00  -3.4931841530652768e-09 -5.8448210013886124e-03 0.0000000000000000e+00  -3.1020321152233701e-09 -6.0582336759187573e-03 0.0000000000000000e+00  0.0000000000000000e+00 0.0000000000000000e+00 0.0000000000000000e+00  0.0000000000000000e+00 0.0000000000000000e+00 0.0000000000000000e+00  0.0000000000000000e+00 0.0000000000000000e+00 0.0000000000000000e+00  6.3442544785596312e-09 -4.1855466234699571e-03 0.0000000000000000e+00  1.5513182092996525e-08 -5.9033553476523616e-03 0.0000000000000000e+00  1.5814402832988172e-08 -6.0804789627256313e-03 0.0000000000000000e+00  0.0000000000000000e+00 0.0000000000000000e+00 0.0000000000000000e+00  0.0000000000000000e+00 0.0000000000000000e+00 0.0000000000000000e+00  0.0000000000000000e+00 0.0000000000000000e+00 0.0000000000000000e+00  9.2137451567622309e-09 -4.2144439051516819e-03 0.0000000000000000e+00  0.0000000000000000e+00 0.0000000000000000e+00 0.0000000000000000e+00  0.0000000000000000e+00 0.0000000000000000e+00 0.0000000000000000e+00  1.9516630782676644e-08 -5.9006174092785480e-03 0.0000000000000000e+00  2.5280182711600314e-08 -6.0841776001413503e-03 0.0000000000000000e+00  0.0000000000000000e+00 0.0000000000000000e+00 0.0000000000000000e+00  2.3138841996841274e-09 -4.1569608952056357e-03 0.0000000000000000e+00  0.0000000000000000e+00 0.0000000000000000e+00 0.0000000000000000e+00  0.0000000000000000e+00 0.0000000000000000e+00 0.0000000000000000e+00  5.5473155039217969e-09 -5.8949621294939200e-03 0.0000000000000000e+00  1.1387217299352159e-09 -6.0740962565841100e-03 0.0000000000000000e+00  0.0000000000000000e+00 0.0000000000000000e+00 0.0000000000000000e+00  8.7004110521186623e-09 -4.1974682501144762e-03 0.0000000000000000e+00  1.3498867097962950e-08 -5.8546384633022400e-03 0.0000000000000000e+00  6.7414159830641478e-09 -6.0637453353234224e-03 0.0000000000000000e+00  0.0000000000000000e+00 0.0000000000000000e+00 0.0000000000000000e+00  0.0000000000000000e+00 0.0000000000000000e+00 0.0000000000000000e+00  0.0000000000000000e+00 0.0000000000000000e+00 0.0000000000000000e+00  -3.5267774342384431e-10 -4.1836957008849172e-03 0.0000000000000000e+00  0.0000000000000000e+00 0.0000000000000000e+00 0.0000000000000000e+00  0.0000000000000000e+00 0.0000000000000000e+00 0.0000000000000000e+00  -8.7252490367864921e-10 -5.9023550425175595e-03 0.0000000000000000e+00  -1.9131047907287370e-09 -6.0757830718847980e-03 0.0000000000000000e+00  0.0000000000000000e+00 0.0000000000000000e+00 0.0000000000000000e+00  2.0228807683415878e-08 -4.0670620544983691e-03 0.0000000000000000e+00  -3.5181420366175636e-08 -5.8880224088353195e-03 0.0000000000000000e+00  -2.5849563987793232e-09 -6.0767333818645122e-03 0.0000000000000000e+00  0.0000000000000000e+00 0.0000000000000000e+00 0.0000000000000000e+00  0.0000000000000000e+00 0.0000000000000000e+00 0.0000000000000000e+00  0.0000000000000000e+00 0.0000000000000000e+00 0.0000000000000000e+00  -3.0148918502059629e-09 -4.1549511293365211e-03 0.0000000000000000e+00  0.0000000000000000e+00 0.0000000000000000e+00 0.0000000000000000e+00  0.0000000000000000e+00 0.0000000000000000e+00 0.0000000000000000e+00  3.1509178417451790e-09 -5.8515028833367672e-03 0.0000000000000000e+00  6.6564626017390269e-09 -6.0653931792527729e-03 0.0000000000000000e+00  0.0000000000000000e+00 0.0000000000000000e+00 0.0000000000000000e+00  2.3290066656550745e-09 -3.9256519665093470e-03 0.0000000000000000e+00  0.0000000000000000e+00 0.0000000000000000e+00 0.0000000000000000e+00  0.0000000000000000e+00 0.0000000000000000e+00 0.0000000000000000e+00  1.5423708463048754e-09 -5.8801556880366057e-03 0.0000000000000000e+00  4.0542396139107987e-09 -6.0670891617500373e-03 0.0000000000000000e+00  0.0000000000000000e+00 0.0000000000000000e+00 0.0000000000000000e+00  3.1219984478715217e-09 -4.2969443555136650e-03 0.0000000000000000e+00  9.4177267932860572e-09 -5.8951559448916710e-03 0.0000000000000000e+00  4.7085916522397452e-09 -6.0917817097204613e-03 0.0000000000000000e+00  0.0000000000000000e+00 0.0000000000000000e+00 0.0000000000000000e+00  0.0000000000000000e+00 0.0000000000000000e+00 0.0000000000000000e+00  0.0000000000000000e+00 0.0000000000000000e+00 0.0000000000000000e+00  -2.4846404100879617e-09 -4.2964934858232308e-03 0.0000000000000000e+00  0.0000000000000000e+00 0.0000000000000000e+00 0.0000000000000000e+00  0.0000000000000000e+00 0.0000000000000000e+00 0.0000000000000000e+00  -1.0344736913877354e-09 -5.8943788813808828e-03 0.0000000000000000e+00  -1.5172113761962465e-09 -6.0888486318518660e-03 0.0000000000000000e+00  1.5165190135609106e-07 -5.8554090621208178e-03 0.0000000000000000e+00  1.9104137041313199e-08 -6.1682879101657316e-03 0.0000000000000000e+00  1.4703551936258791e-07 -4.0919573848431463e-03 0.0000000000000000e+00  0.0000000000000000e+00 0.0000000000000000e+00 0.0000000000000000e+00  3.0143325177641799e-07 -3.9593569439934249e-03 0.0000000000000000e+00  2.7518825922207611e-07 -5.8776506820871427e-03 0.0000000000000000e+00  3.9812720617663629e-07 -6.0524424074658908e-03 0.0000000000000000e+00  0.0000000000000000e+00 0.0000000000000000e+00 0.0000000000000000e+00  0.0000000000000000e+00 0.0000000000000000e+00 0.0000000000000000e+00  1.7781123165226002e-07 -6.2702311737248342e-03 0.0000000000000000e+00  9.7720002412930254e-08 -6.2888887747212172e-03 0.0000000000000000e+00  -2.5972148594874051e-08 -6.2589030968193474e-03 0.0000000000000000e+00  -4.6134148099052869e-08 -6.2601036600896604e-03 0.0000000000000000e+00  1.1588427758866731e-07 -6.2891000888288017e-03 0.0000000000000000e+00  4.5767191398542209e-07 -6.2847696608697720e-03 0.0000000000000000e+00  -8.6540884735946125e-09 -5.7912172810480524e-03 0.0000000000000000e+00  -1.3461675774435929e-08 -6.1909190731627281e-03 0.0000000000000000e+00  -1.1976803939772190e-08 -5.9711684900502606e-03 0.0000000000000000e+00  -5.9708898023826505e-09 -3.7833737581799633e-03 0.0000000000000000e+00  0.0000000000000000e+00 0.0000000000000000e+00 0.0000000000000000e+00  -1.9271769683825446e-09 -5.7811319074369096e-03 0.0000000000000000e+00  -4.3015942034031037e-09 -6.1947176235012573e-03 0.0000000000000000e+00  -9.8615169876202652e-09 -5.9314179423031951e-03 0.0000000000000000e+00  -5.5467423187039712e-09 -3.8396849408340412e-03 0.0000000000000000e+00  0.0000000000000000e+00 0.0000000000000000e+00 0.0000000000000000e+00  -1.0340119575803550e-08 -5.7818784365464568e-03 0.0000000000000000e+00  -1.1230535925760600e-08 -6.1945164865844730e-03 0.0000000000000000e+00  -6.4379279494625035e-09 -5.9339697541216669e-03 0.0000000000000000e+00  -5.6837060035467283e-09 -3.8360767243634771e-03 0.0000000000000000e+00  0.0000000000000000e+00 0.0000000000000000e+00 0.0000000000000000e+00  8.4771707455170806e-10 -5.8227580827083800e-03 0.0000000000000000e+00  1.1459441907545485e-09 -6.1967737511380615e-03 0.0000000000000000e+00  3.7593598734252219e-09 -5.9748451925912540e-03 0.0000000000000000e+00  2.5899763114927646e-09 -6.2610944207427991e-03 0.0000000000000000e+00  5.2475167532114231e-10 -3.8001424195895236e-03 0.0000000000000000e+00  0.0000000000000000e+00 0.0000000000000000e+00 0.0000000000000000e+00  8.7394627615507211e-09 -6.0495928055102587e-03 0.0000000000000000e+00  6.1980767765722714e-09 -6.2198643715209003e-03 0.0000000000000000e+00  5.0995498208796746e-09 -3.7799065846140052e-03 0.0000000000000000e+00  6.8213586739601567e-10 -6.2869385892045408e-03 0.0000000000000000e+00  -1.3116458574521481e-10 -6.2817386630401022e-03 0.0000000000000000e+00  1.8985175460317749e-09 -6.2885666985250856e-03 0.0000000000000000e+00  1.7498006969404971e-09 -6.2900582204619944e-03 0.0000000000000000e+00  4.5311201962547698e-09 -6.2783670596984345e-03 0.0000000000000000e+00  -1.2183349887720800e-08 -5.9629668712768442e-03 0.0000000000000000e+00  -1.4117602625820678e-08 -6.2108260919242876e-03 0.0000000000000000e+00  -1.1993221417271101e-08 -3.7509405446520400e-03 0.0000000000000000e+00  -6.3807916673469808e-09 -6.2447376835770086e-03 0.0000000000000000e+00  -1.8721111606015097e-08 -5.6861972806216193e-03 0.0000000000000000e+00  4.9785970930167461e-09 -6.2862514945039348e-03 0.0000000000000000e+00  2.7253273051972979e-09 -6.2894276601236018e-03 0.0000000000000000e+00  3.8333296867473469e-09 -6.2901943820428364e-03 0.0000000000000000e+00  5.8583655222275071e-07 -5.9406980333460233e-03 0.0000000000000000e+00  7.2972038730649011e-07 -6.1068897537988479e-03 0.0000000000000000e+00  2.8384319123885378e-07 -5.7584641591593381e-03 0.0000000000000000e+00  -6.3712165706751304e-09 -6.2594173856652963e-03 0.0000000000000000e+00  -8.6868262745398369e-09 -6.2532222883884383e-03 0.0000000000000000e+00  8.9203894371355900e-10 -6.2885101586121466e-03 0.0000000000000000e+00  1.1994030988872303e-09 -6.2621211141059710e-03 0.0000000000000000e+00  9.5520801104184337e-10 -6.2532589527491385e-03 0.0000000000000000e+00  2.5537032780111531e-09 -6.2889036148883843e-03 0.0000000000000000e+00  -5.8024034933140050e-09 -6.2596040171374601e-03 0.0000000000000000e+00  -7.5953466558890015e-09 -6.2551127530589322e-03 0.0000000000000000e+00  -5.4065706705023817e-09 -6.2885297253764995e-03 0.0000000000000000e+00  6.7143779761558574e-09 -6.0144566878885079e-03 0.0000000000000000e+00  3.6334671314549885e-09 -6.2536753317612914e-03 0.0000000000000000e+00  5.1241369198816581e-09 -6.2707723220338518e-03 0.0000000000000000e+00  -2.5656699797606482e-10 -6.2738579711242946e-03 0.0000000000000000e+00  7.6699674940377994e-09 -6.2699276944910252e-03 0.0000000000000000e+00  8.6270065913781862e-09 -6.2697448759692492e-03 0.0000000000000000e+00  1.0049521869864902e-08 -6.2537127254179243e-03 0.0000000000000000e+00  1.0252835613183411e-08 -6.2709399953048781e-03 0.0000000000000000e+00  9.1046178931611735e-09 -6.2739687246113809e-03 0.0000000000000000e+00  5.5007478263962604e-09 -6.0242950514169226e-03 0.0000000000000000e+00  3.8103369006225598e-09 -6.2593977452184866e-03 0.0000000000000000e+00  1.0431880697359818e-09 -6.2689564146374468e-03 0.0000000000000000e+00  6.2393979455582876e-10 -6.2568225833771552e-03 0.0000000000000000e+00  4.2652666749209123e-09 -6.2704054608568541e-03 0.0000000000000000e+00  -3.1288585179703164e-10 -6.2725394003429044e-03 0.0000000000000000e+00  -3.1978697083637871e-09 -6.0243933639667832e-03 0.0000000000000000e+00  -6.8151663458254811e-09 -6.2594782209580554e-03 0.0000000000000000e+00  -4.5957983401634797e-09 -6.2691006181975397e-03 0.0000000000000000e+00  -3.8424885467281268e-09 -6.2572453094984120e-03 0.0000000000000000e+00  -3.4376530169662376e-09 -6.2704670029510136e-03 0.0000000000000000e+00  -3.0340718374089589e-09 -6.2729211076702936e-03 0.0000000000000000e+00  1.0099719727036509e-08 -6.2592850646091408e-03 0.0000000000000000e+00  5.2215190350584150e-09 -6.2690220893236639e-03 0.0000000000000000e+00  7.7839548031017413e-09 -6.2565540001581254e-03 0.0000000000000000e+00  -1.1919069522230489e-09 -6.2593194701001977e-03 0.0000000000000000e+00  -1.7204512919089729e-09 -6.2690472420229744e-03 0.0000000000000000e+00  2.8199968142527358e-10 -6.2565864210203347e-03 0.0000000000000000e+00  5.3804919156369897e-09 -6.0284675430269238e-03 0.0000000000000000e+00  6.9930451732022074e-09 -6.2598629583136677e-03 0.0000000000000000e+00  6.8518901626819391e-09 -6.2692982644092787e-03 0.0000000000000000e+00  7.6117427914558890e-09 -6.2572435767370782e-03 0.0000000000000000e+00  6.5755163818615249e-09 -6.2707789293809093e-03 0.0000000000000000e+00  6.0702154751501163e-09 -6.2727895278741393e-03 0.0000000000000000e+00  6.0096239264724404e-09 -6.2597231007073626e-03 0.0000000000000000e+00  5.6218977523547072e-09 -6.2689521338516819e-03 0.0000000000000000e+00  4.5198765694942594e-09 -6.2556297219951793e-03 0.0000000000000000e+00  -4.8343527635734106e-09 -6.0280885565898940e-03 0.0000000000000000e+00  -4.1879955461838885e-09 -6.2588769151731864e-03 0.0000000000000000e+00  -3.6442540761729985e-09 -6.2687749810853002e-03 0.0000000000000000e+00  -2.6964921570589090e-09 -6.2472636265124195e-03 0.0000000000000000e+00  -5.4928687070632600e-09 -6.2707276096474083e-03 0.0000000000000000e+00  -3.7213659627976768e-09 -6.2725579786483306e-03 0.0000000000000000e+00  -7.5327874588431840e-09 -6.2597662842569079e-03 0.0000000000000000e+00  -5.9401766858783683e-09 -6.2689495338950811e-03 0.0000000000000000e+00  -6.9487003137547872e-09 -6.2565672320636662e-03 0.0000000000000000e+00  1.2950222611345985e-08 -6.0242358747981915e-03 0.0000000000000000e+00  2.0010287307526562e-08 -6.2592621745261911e-03 0.0000000000000000e+00  2.1503995021069889e-08 -6.2689440032816382e-03 0.0000000000000000e+00  2.4042764436217752e-08 -6.2564475137990181e-03 0.0000000000000000e+00  1.7975983875587079e-08 -6.2703996301435678e-03 0.0000000000000000e+00  1.7726665798257531e-08 -6.2725071243168798e-03 0.0000000000000000e+00  9.9976293737697328e-09 -6.0472305941799264e-03 0.0000000000000000e+00  8.1619854853029536e-09 -6.2331615659519815e-03 0.0000000000000000e+00  5.1967118616392279e-09 -6.2725836899173186e-03 0.0000000000000000e+00  2.9280514128441674e-09 -6.2605021468596905e-03 0.0000000000000000e+00  8.7825930395449318e-09 -6.2703305634277187e-03 0.0000000000000000e+00  5.0443995923801466e-09 -6.2736644153263263e-03 0.0000000000000000e+00  -1.0014234690816773e-08 -6.0242768750122227e-03 0.0000000000000000e+00  -1.2835610321405250e-08 -6.2592840045053366e-03 0.0000000000000000e+00  -8.5630514275299656e-09 -6.2689242025350143e-03 0.0000000000000000e+00  -9.