<?xml version="1.0"?>
<VTKFile type="UnstructuredGrid"  version="0.1"  >
<UnstructuredGrid>
<Piece  NumberOfPoints="2690" NumberOfCells="4864">
<Points>
<DataArray  type="Float64"  NumberOfComponents="3"  format="ascii">-5.010489083731374 22.00227908540153 0  -5.61175079197387 21.26480423550778 0  -5.010276791061122 21.50246700685618 0  -5.010039691385257 21.00229701862618 0  -5.611953205133407 21.76484437868789 0  -6.213431079708442 21.52704006103217 0  -9 21.99999999996945 0  -8.398406131549708 21.26297672856624 0  -9 21.49999999997139 0  -9 20.99999999997333 0  -8.398442174872732 21.76297402252082 0  -7.796850181757836 21.52594216933382 0  -9 32.9999999999446 0  -8.399200100288173 32.26296925636244 0  -9 32.49999999994358 0  -9 31.99999999994255 0  -8.399236189748351 32.76296988189016 0  -7.798438116049556 32.52593448092622 0  -5.015761316108366 33.00246628342719 0  -5.533131074509347 32.29879896284812 0  -5.015538049558557 32.5027929003714 0  -5.015294179083288 32.00238929735048 0  -5.533338881849625 32.7988615623207 0  -6.050930257746534 32.59490332874221 0  -5.025865500839581 54.00236191219619 0  -5.625367745666561 54.7397491536287 0  -5.625169096320288 54.23984688125947 0  -6.224454621239578 54.4769892516688 0  -5.026088912569232 54.502526889835 0  -5.026306289079737 55.00238240631079 0  -9 54.99999999998974 0  -8.473375628650299 54.29651708888825 0  -9 54.49999999998872 0  -9 53.99999999998769 0  -8.473406561503479 54.79650761320739 0  -7.946788382540571 54.59301820438344 0  -9 39.99999999995897 0  -8.399812588833365 40.73796220413062 0  -8.399776512212441 40.23796262919673 0  -7.799587354500601 40.47591863964517 0  -9 40.49999999996 0  -9 40.99999999996102 0  -5.019597777442975 41.00218837994206 0  -5.592920350623327 40.27017227012628 0  -5.019377130863728 40.5025394302144 0  -5.019149005780331 40.00246598055725 0  -5.593123477627465 40.77013489289389 0  -6.16666900050225 40.53768290820101 0  -9 55.99999999999179 0  -8.425620880121533 56.7437540511516 0  -8.425590196062325 56.24374813670446 0  -7.851212567065333 56.48749596576712 0  -9 56.49999999999282 0  -9 56.99999999999384 0  -5.026818379465525 56.00225932680609 0  -5.601511480169777 56.74558630403207 0  -5.601313162916095 56.24557699439399 0  -6.175783533472464 56.4886157391101 0  -5.027055592156241 56.50260240350682 0  -5.027271995383427 57.00238905704384 0  -7.445533569297773 43.00129030727378 0  -6.602044736373817 43.11018522507825 0  -7.208327679861442 43.33884610886709 0  -6.971141049730562 43.67640394239419 0  -6.83923214481305 42.77261550055646 0  -6.232896666463575 42.54394058627994 0  -6.576784613604032 49.00243084143987 0  -7.419674776794106 48.89339990586576 0  -6.813802226966986 48.66485772312093 0  -7.050839527969699 48.32727762283912 0  -7.182638656187351 49.23096799878233 0  -7.788459210533552 49.45952266346571 0  -6.575905517537803 46.00228426937275 0  -7.4191020801829 45.89330593904489 0  -6.813009981314919 45.6646854210972 0  -7.050134003145261 45.32709831524757 0  -7.18197954349788 46.23089159411829 0  -7.788019883266014 46.4594901998575 0  -6.564531911669391 7.002370674845754 0  -7.411685099053503 6.893373105320007 0  -6.802749975531945 6.664796092615052 0  -7.040987552387317 6.327222124808257 0  -7.173449034781311 7.230946882230273 0  -7.782332646674976 7.459521128229833 0  -7.443100014899799 30.00127575503809 0  -6.598290248880095 30.11015331846418 0  -7.205522800539824 30.33879701572385 0  -6.967964968570159 30.67631062324874 0  -6.835849181156653 29.77262456795004 0  -6.228564185113144 29.54398551155406 0  -6.563674842780955 4.002258029351872 0  -7.411170658011279 4.109643617249436 0  -6.802151328849627 4.33939424159684 0  -7.04060908807312 4.676522826529975 0  -7.172714106890325 3.772510198980756 0  -7.78178225227403 3.542777510606954 0  -6.565402611542067 10.00239217028667 0  -7.412293290601973 10.10973324687179 0  -6.803711740214785 10.33949831949022 0  -7.042001843648333 10.67660445122087 0  -7.174001945559499 9.772629250133511 0  -7.782634676878994 9.542863776698914 0  -6.566275099317407 13.00241183703894 0  -7.412821237192365 12.89340630393413 0  -6.804321827960885 12.66483803183102 0  -7.042387959731138 12.32726505971918 0  -7.174756268662063 13.23098294164161 0  -7.783204168009946 13.45954701720301 0  -6.567150073319484 16.00244883941756 0  -7.413391781287961 15.89341688301241 0  -6.805110862843389 15.66487767080292 0  -7.043091220864835 15.32730062803449 0  -7.175412629972037 16.23098514979078 0  -7.783641821029788 16.45953532549076 0  -6.568026756551669 19.00219193324328 0  -7.414005028277399 19.10957755389591 0  -6.806080479453552 19.33925946780358 0  -7.04411454919439 19.67634076540809 0  -7.175969678723587 18.77248938860582 0  -7.783946252865367 18.54278036546373 0  -6.570359817103985 27.00210933556218 0  -7.415526383374114 27.10952563695897 0  -6.80818463264172 27.33922295830132 0  -7.045990095253817 27.67633981738413 0  -7.177719660524551 26.77239589246454 0  -7.785113042898001 26.54270163306989 0  -8.270794953069306 19.09454668511967 0  -8.027378699723156 18.81865991117954 0  -8.39195331186254 18.27139655080995 0  -8.635373460863308 18.54728330998847 0  -9 17.99999999998495 0  -8.271494464284988 27.09452059305008 0  -8.028311812110548 26.81861138848903 0  -8.39253678449796 26.27134874037031 0  -8.635723314264325 26.54725988280563 0  -9 25.99999999995395 0  -8.270515504082699 15.90682562706264 0  -8.027070585126864 16.18318177652417 0  -8.391840664921972 16.72976244157945 0  -8.635281697973136 16.45340902333553 0  -9 16.99999999998883 0  -5.742624518727762 30.0966874361355 0  -5.985585675755755 29.82033330835955 0  -5.621226564141783 29.27366465318657 0  -5.378258467638699 29.55012563698868 0  -5.013831243898332 29.00227490248251 0  -8.270253174714201 12.90682487264079 0  -8.026720615992129 13.18318546248408 0  -8.39162179218539 13.7297745019297 0  -8.635150472668132 13.45341354183168 0  -9 13.99999999999401 0  -8.270007958071975 10.09461959240415 0  -8.026329332068824 9.818741785407306 0  -8.391297679230316 9.271431501308307 0  -8.634980178452718 9.547309335172278 0  -9 8.99999999999857 0  -8.26949344476329 4.09457718170807 0  -8.025645213297917 3.818679269409434 0  -8.39087509880232 3.271385425789107 0  -8.634725370264212 3.54728382918019 0  -9 2.999999999998668 0  -8.269730971019875 6.906808255786287 0  -8.026023798747849 7.18316423648843 0  -8.391185947180098 7.729761256237304 0  -8.634889186740685 7.453405521028404 0  -9 7.999999999999485 0  -8.273141038530646 45.9067773178518 0  -8.030572385482806 46.18313113702968 0  -8.394029732404217 46.72974917996109 0  -8.636594456625254 46.45339559145759 0  -9 46.99999999997333 0  -8.273404253973553 48.90681651129643 0  -8.030923625028016 49.18317084062434 0  -8.394249378793592 49.72975597549145 0  -8.636726144135448 49.45340496194506 0  -9 49.99999999997949 0  -5.747718103930713 43.09671445281462 0  -5.990298582174866 42.82032604535642 0  -5.626508269306339 42.27358751245256 0  -5.383921233134351 42.55009490250926 0  -5.020060984481164 42.00218396527574 0  -5.735478511590813 23.91913681413931 0  -5.983628797842957 24.18662709020117 0  -5.621836123825251 24.72873805913079 0  -6.231762114008714 24.45412460868377 0  -5.373694605399757 24.46135613630997 0  -5.011957202933615 25.00227020745681 0  -8.278396437899113 52.08431369213888 0  -8.031151637502507 51.81680995968587 0  -8.391925353005943 51.27466251286188 0  -7.783890905314667 51.54931262915231 0  -8.639174679203604 51.54216610113593 0  -9 50.99999999998153 0  -5.74103124747721 38.08645751027987 0  -5.98856424619415 37.81845976283333 0  -5.626918968701959 37.27685828360034 0  -6.236114225897853 37.55047104543531 0  -5.379378384884355 37.54498432441734 0  -5.017659875703306 37.00208219802247 0  -5.739790332164607 34.91911407110031 0  -5.987613539806792 35.18658818915547 0  -5.626300310384598 35.72867122793442 0  -6.235419792549608 35.45406940372357 0  -5.378484468291452 35.46132112733731 0  -5.017230024693221 36.00217160128523 0  -7.890524547131664 50.50123217784402 0  -7.83720438531761 51.02527525091887 0  -8.445278944211509 50.75061009623463 0  -6.128945910086225 36.50225227175858 0  -6.182532714735125 37.02634732002669 0  -5.573301118476271 36.75257214600221 0  -6.182180174876122 35.97814690564048 0  -5.573098638705068 36.25254989558378 0  -5.985818534863108 25.26243673665929 0  -6.108785004261438 24.85828599831223 0  -5.498889657286946 25.13276977639878 0  -8.030488495499345 25.74663392057921 0  -7.907794896452939 26.144667709464 0  -8.515251628359309 25.87331732049202 0  -6.950781924949224 34.37756414725902 0  -6.593077248798465 34.91582910602026 0  -6.849049938874978 35.24015397228063 0  -7.206757261071033 34.70190745403956 0  -7.462712455703527 35.02624676590357 0  -7.069897483617147 52.62575397123344 0  -7.426870998415914 52.0875452622294 0  -7.171439771713777 51.76325567300641 0  -6.814468743575584 52.30147106779096 0  -6.559019945541039 51.97719485845272 0  -6.951830121314742 38.6257443942249 0  -6.593995650395715 38.08812073486748 0  -6.8497022827457 37.76335127519349 0  -7.207534042405645 38.30099441377138 0  -7.463258089294114 37.97623979684707 0  -6.948072036873544 23.37757672294347 0  -6.589893611569435 23.91585814410814 0  -6.846204400456224 24.24019314132936 0  -7.204385522805985 23.70192741961634 0  -7.46067893979039 24.02627172321458 0  -7.886258175367899 17.50106801797207 0  -7.835098960273546 18.02192756793329 0  -8.44314581389307 17.75052775863141 0  -7.834953199470817 16.98030292042588 0  -8.443112362062463 17.25053744255564 0  -7.885058225271361 8.501093447155435 0  -7.833843256569039 9.021978821176551 0  -8.442545704453492 8.750546977078018 0  -7.931589267760321 2.416545726783182 0  -7.856678885566053 2.979658703015809 0  -8.465810451532356 2.708276111666908 0  -7.833698590617733 7.98030788614783 0  -8.442512516298361 8.250545951906224 0  -7.839495141943612 49.98037877054462 0  -8.445245501138881 50.25061954481628 0  -6.041380557126052 41.59531129672605 0  -6.137143519357733 42.06963526
[...]
<PointData  Vectors="f_27"> 
<DataArray  type="Float64"  Name="f_27"  NumberOfComponents="3" format="ascii">0.0000000000000000e+00 0.0000000000000000e+00 0.0000000000000000e+00  1.3086029969213839e-06 -7.1874498814629680e-03 0.0000000000000000e+00  0.0000000000000000e+00 0.0000000000000000e+00 0.0000000000000000e+00  0.0000000000000000e+00 0.0000000000000000e+00 0.0000000000000000e+00  -1.4220897471303353e-05 -1.0054930793346658e-02 0.0000000000000000e+00  -2.6191253562203693e-06 -1.0349135271049395e-02 0.0000000000000000e+00  0.0000000000000000e+00 0.0000000000000000e+00 0.0000000000000000e+00  5.5121051571606145e-06 -7.3179712442854013e-03 0.0000000000000000e+00  0.0000000000000000e+00 0.0000000000000000e+00 0.0000000000000000e+00  0.0000000000000000e+00 0.0000000000000000e+00 0.0000000000000000e+00  2.6076863320107825e-05 -1.0037840428751476e-02 0.0000000000000000e+00  1.4073064972793773e-05 -1.0393094560727218e-02 0.0000000000000000e+00  0.0000000000000000e+00 0.0000000000000000e+00 0.0000000000000000e+00  4.5258075473389939e-06 -7.1757932213524995e-03 0.0000000000000000e+00  0.0000000000000000e+00 0.0000000000000000e+00 0.0000000000000000e+00  0.0000000000000000e+00 0.0000000000000000e+00 0.0000000000000000e+00  2.4754457298494076e-05 -1.0024102200234041e-02 0.0000000000000000e+00  1.2884559045140888e-05 -1.0379914807871324e-02 0.0000000000000000e+00  0.0000000000000000e+00 0.0000000000000000e+00 0.0000000000000000e+00  -2.0221258858732923e-08 -7.5332684551011201e-03 0.0000000000000000e+00  0.0000000000000000e+00 0.0000000000000000e+00 0.0000000000000000e+00  0.0000000000000000e+00 0.0000000000000000e+00 0.0000000000000000e+00  -8.4347679173418952e-06 -1.0063754065721187e-02 0.0000000000000000e+00  -7.4567424532903638e-07 -1.0405019837911684e-02 0.0000000000000000e+00  0.0000000000000000e+00 0.0000000000000000e+00 0.0000000000000000e+00  5.9111350553487123e-06 -7.4990515619537601e-03 0.0000000000000000e+00  2.8205395246976012e-05 -1.0033524283654876e-02 0.0000000000000000e+00  1.3609688035287176e-05 -1.0371220992624938e-02 0.0000000000000000e+00  0.0000000000000000e+00 0.0000000000000000e+00 0.0000000000000000e+00  0.0000000000000000e+00 0.0000000000000000e+00 0.0000000000000000e+00  0.0000000000000000e+00 0.0000000000000000e+00 0.0000000000000000e+00  1.1027902820974172e-06 -7.4866424716090842e-03 0.0000000000000000e+00  0.0000000000000000e+00 0.0000000000000000e+00 0.0000000000000000e+00  0.0000000000000000e+00 0.0000000000000000e+00 0.0000000000000000e+00  6.1649153224282534e-06 -1.0118118816005758e-02 0.0000000000000000e+00  4.7850702036996481e-06 -1.0392105418135055e-02 0.0000000000000000e+00  0.0000000000000000e+00 0.0000000000000000e+00 0.0000000000000000e+00  1.0848396200392959e-06 -7.1537741566566112e-03 0.0000000000000000e+00  -1.6190767870509862e-05 -1.0020193736309697e-02 0.0000000000000000e+00  -4.7441381545141813e-06 -1.0370714251423970e-02 0.0000000000000000e+00  0.0000000000000000e+00 0.0000000000000000e+00 0.0000000000000000e+00  0.0000000000000000e+00 0.0000000000000000e+00 0.0000000000000000e+00  0.0000000000000000e+00 0.0000000000000000e+00 0.0000000000000000e+00  1.0272026637028594e-05 -7.2879346140240471e-03 0.0000000000000000e+00  0.0000000000000000e+00 0.0000000000000000e+00 0.0000000000000000e+00  0.0000000000000000e+00 0.0000000000000000e+00 0.0000000000000000e+00  -2.5262243218909055e-06 -1.0132195861664643e-02 0.0000000000000000e+00  4.0030629999528417e-06 -1.0394693016066525e-02 0.0000000000000000e+00  0.0000000000000000e+00 0.0000000000000000e+00 0.0000000000000000e+00  9.5514856227313457e-06 -7.7744465260026641e-03 0.0000000000000000e+00  -6.5680915833196443e-06 -1.0060399045996871e-02 0.0000000000000000e+00  5.0771004536037514e-06 -1.0385654353629198e-02 0.0000000000000000e+00  0.0000000000000000e+00 0.0000000000000000e+00 0.0000000000000000e+00  0.0000000000000000e+00 0.0000000000000000e+00 0.0000000000000000e+00  0.0000000000000000e+00 0.0000000000000000e+00 0.0000000000000000e+00  -4.4582521583662338e-06 -7.7745427869582249e-03 0.0000000000000000e+00  1.3186816260455351e-05 -1.0059970491824886e-02 0.0000000000000000e+00  1.6550780306077391e-06 -1.0382469290683529e-02 0.0000000000000000e+00  0.0000000000000000e+00 0.0000000000000000e+00 0.0000000000000000e+00  0.0000000000000000e+00 0.0000000000000000e+00 0.0000000000000000e+00  5.6797345974561832e-06 -1.0666382156118195e-02 0.0000000000000000e+00  4.7093192183043745e-06 -1.0672921883197782e-02 0.0000000000000000e+00  3.9933865350182236e-06 -1.0674730163028634e-02 0.0000000000000000e+00  3.4484288613169939e-06 -1.0675214465665162e-02 0.0000000000000000e+00  4.5716737184458006e-06 -1.0673774262944380e-02 0.0000000000000000e+00  -1.5539964366026617e-06 -1.0633937429024921e-02 0.0000000000000000e+00  7.7546968956213282e-06 -1.0657648894830177e-02 0.0000000000000000e+00  6.9139898769917582e-06 -1.0651173524843694e-02 0.0000000000000000e+00  7.8726580458975832e-06 -1.0665050905783121e-02 0.0000000000000000e+00  7.8199909369616736e-06 -1.0658971812267789e-02 0.0000000000000000e+00  6.0207714411268373e-06 -1.0663364517198995e-02 0.0000000000000000e+00  1.5260988784818419e-06 -1.0624308063236164e-02 0.0000000000000000e+00  9.7881112968233976e-07 -1.0660311979564028e-02 0.0000000000000000e+00  1.8801114329648770e-06 -1.0666295636713353e-02 0.0000000000000000e+00  5.5161053502415371e-07 -1.0669862096740940e-02 0.0000000000000000e+00  1.1185032677462141e-06 -1.0672052409776898e-02 0.0000000000000000e+00  1.3306668652027926e-06 -1.0665024221104942e-02 0.0000000000000000e+00  -1.2427302087509177e-06 -1.0625582963098620e-02 0.0000000000000000e+00  3.2437627189151978e-06 -1.0685985281620488e-02 0.0000000000000000e+00  2.1384800455447818e-06 -1.0691691765061630e-02 0.0000000000000000e+00  2.7870312931458740e-06 -1.0694656707336297e-02 0.0000000000000000e+00  3.7446071951748895e-06 -1.0695195719193499e-02 0.0000000000000000e+00  1.7658246791814045e-06 -1.0692686585600028e-02 0.0000000000000000e+00  -1.9261757157021471e-06 -1.0656425594916964e-02 0.0000000000000000e+00  2.2575788558590111e-06 -1.0670238758166943e-02 0.0000000000000000e+00  5.8507641667606794e-06 -1.0668370359508159e-02 0.0000000000000000e+00  1.8305779409128043e-06 -1.0682866687639420e-02 0.0000000000000000e+00  2.6596382828953516e-06 -1.0676179765132911e-02 0.0000000000000000e+00  4.3999299006204741e-06 -1.0677778446725364e-02 0.0000000000000000e+00  2.3134337894533916e-06 -1.0636302043169225e-02 0.0000000000000000e+00  5.8119797817707134e-06 -1.0689233672876044e-02 0.0000000000000000e+00  6.9763725820456835e-06 -1.0695136564983221e-02 0.0000000000000000e+00  6.6592536172992497e-06 -1.0697715505922661e-02 0.0000000000000000e+00  6.0454822193427849e-06 -1.0697346723726442e-02 0.0000000000000000e+00  6.7560695665643344e-06 -1.0696626294287930e-02 0.0000000000000000e+00  1.0349384889216190e-05 -1.0662674623971117e-02 0.0000000000000000e+00  1.0151846782629811e-05 -1.0684435656319430e-02 0.0000000000000000e+00  1.0162654170464243e-05 -1.0688611356626590e-02 0.0000000000000000e+00  9.6624585815101898e-06 -1.0691955680297656e-02 0.0000000000000000e+00  8.3826503837179802e-06 -1.0691715159982221e-02 0.0000000000000000e+00  1.1417877445170000e-05 -1.0690243800712651e-02 0.0000000000000000e+00  1.5959762064257592e-05 -1.0648284705077801e-02 0.0000000000000000e+00  4.2358120010587146e-06 -1.0680523637434170e-02 0.0000000000000000e+00  3.9091707356492864e-06 -1.0686052948525373e-02 0.0000000000000000e+00  4.1839351118086961e-06 -1.0689249105022613e-02 0.0000000000000000e+00  5.3473367309992986e-06 -1.0689925552648994e-02 0.0000000000000000e+00  3.0120980172934247e-06 -1.0686272129131860e-02 0.0000000000000000e+00  -5.0370349788123775e-07 -1.0647122521712996e-02 0.0000000000000000e+00  7.5413408381302756e-06 -1.0680922938227018e-02 0.0000000000000000e+00  6.8413587634170247e-06 -1.0674132195642030e-02 0.0000000000000000e+00  7.8239613473023734e-06 -1.0688196210832461e-02 0.0000000000000000e+00  7.9420920805209589e-06 -1.0682052209886000e-02 0.0000000000000000e+00  5.7413294716461882e-06 -1.0686364886118680e-02 0.0000000000000000e+00  1.2782578499484359e-06 -1.0647106434297674e-02 0.0000000000000000e+00  1.4456227182541769e-05 -1.0678936142686651e-02 0.0000000000000000e+00  1.0056590262992624e-05 -1.0675507619964650e-02 0.0000000000000000e+00  1.3312851188004799e-05 -1.0690330729225081e-02 0.0000000000000000e+00  1.0662042412408928e-05 -1.0682485743927359e-02 0.0000000000000000e+00  1.2835440099925016e-05 -1.0687075382151868e-02 0.0000000000000000e+00  1.6087038554464797e-05 -1.0641634546459351e-02 0.0000000000000000e+00  9.7034167084658158e-06 -1.0669304492656531e-02 0.0000000000000000e+00  9.3936219362123911e-06 -1.0679793708479823e-02 0.0000000000000000e+00  1.0763336836066086e-05 -1.0681518119590425e-02 0.0000000000000000e+00  9.8835228891217854e-06 -1.0678166681070763e-02 0.0000000000000000e+00  8.5610834037010867e-06 -1.0680328995265035e-02 0.0000000000000000e+00  1.1344372627673848e-05 -1.0643303048272689e-02 0.0000000000000000e+00  4.2190339744531706e-06 -1.0008237470401580e-02 0.0000000000000000e+00  1.3709204316362430e-05 -1.0576393230826195e-02 0.0000000000000000e+00  2.1756205255627924e-05 -1.0122377254623631e-02 0.0000000000000000e+00  1.2763058281832136e-05 -7.2082688409551843e-03 0.0000000000000000e+00  0.0000000000000000e+00 0.0000000000000000e+00 0.0000000000000000e+00  6.1766147854551185e-06 -1.0015139349992104e-02 0.0000000000000000e+00  1.0050051482020068e-05 -1.0575070162378911e-02 0.0000000000000000e+00  1.5005312641236701e-05 -1.0123603256796102e-02 0.0000000000000000e+00  9.2455777692298561e-06 -7.2029564864269941e-03 0.0000000000000000e+00  0.0000000000000000e+00 0.0000000000000000e+00 0.0000000000000000e+00  3.9189912378750007e-06 -1.0021555827251477e-02 0.0000000000000000e+00  -1.3839465311238810e-06 -1.0575333045291742e-02 0.0000000000000000e+00  -9.0948956386625640e-06 -1.0188995048296146e-02 0.0000000000000000e+00  -9.3638532497413948e-06 -7.1402411219143236e-03 0.0000000000000000e+00  0.0000000000000000e+00 0.0000000000000000e+00 0.0000000000000000e+00  1.0291244929028592e-05 -1.0004786832671128e-02 0.0000000000000000e+00  7.2754682068561751e-06 -1.0569286589826980e-02 0.0000000000000000e+00  -3.8804492687984706e-06 -1.0120326780210069e-02 0.0000000000000000e+00  -9.1756008238638239e-07 -7.2026161114937867e-03 0.0000000000000000e+00  0.0000000000000000e+00 0.0000000000000000e+00 0.0000000000000000e+00  5.2395350044987456e-06 -1.0018375621542851e-02 0.0000000000000000e+00  4.5309619527636543e-07 -1.0578228354029138e-02 0.0000000000000000e+00  -6.0679643589446771e-06 -1.0132983904858495e-02 0.0000000000000000e+00  -2.5221421583095700e-06 -7.2087493023738963e-03 0.0000000000000000e+00  0.0000000000000000e+00 0.0000000000000000e+00 0.0000000000000000e+00  8.2815441931531198e-06 -1.0017892444333354e-02 0.0000000000000000e+00  1.5014461388108833e-05 -1.0580514347547119e-02 0.0000000000000000e+00  2.2032983940395650e-05 -1.0127378757597663e-02 0.0000000000000000e+00  1.3780249391129288e-05 -7.2139548654761489e-03 0.0000000000000000e+00  0.0000000000000000e+00 0.0000000000000000e+00 0.0000000000000000e+00  8.4389988259273794e-06 -1.0040568010249148e-02 0.0000000000000000e+00  1.2663071941351523e-05 -1.0588311728305625e-02 0.0000000000000000e+00  1.8129870028467590e-05 -1.0205204818545721e-02 0.0000000000000000e+00  1.6165595050977902e-05 -7.1545500149887819e-03 0.0000000000000000e+00  0.0000000000000000e+00 0.0000000000000000e+00 0.0000000000000000e+00  1.6113629053771450e-07 -1.0036044711937796e-02 0.0000000000000000e+00  -4.2506478430778911e-06 -1.0582941184329901e-02 0.0000000000000000e+00  -1.0909848562659948e-05 -1.0195882370691333e-02 0.0000000000000000e+00  -1.0603146843373110e-05 -7.1480960877873811e-03 0.0000000000000000e+00  0.0000000000000000e+00 0.0000000000000000e+00 0.0000000000000000e+00  6.2586926932357534e-06 -9.9956325895146289e-03 0.0000000000000000e+00  3.3379174289035915e-07 -1.0556236695044267e-02 0.0000000000000000e+00  -6.0864058604802215e-06 -1.0111576903028449e-02 0.0000000000000000e+00  -2.3229961938781903e-06 -7.1845710205248178e-03 0.0000000000000000e+00  0.0000000000000000e+00 0.0000000000000000e+00 0.0000000000000000e+00  3.9930407716971593e-06 -9.9978373460944958e-03 0.0000000000000000e+00  -1.2049880664945298e-06 -1.0552273363454424e-02 0.0000000000000000e+00  -8.7558197464765436e-06 -1.0167039465661816e-02 0.0000000000000000e+00  -9.1731580569077957e-06 -7.1159903627520636e-03 0.0000000000000000e+00  0.0000000000000000e+00 0.0000000000000000e+00 0.0000000000000000e+00  6.7064319380023949e-06 -1.0001661717390493e-02 0.0000000000000000e+00  2.7723730904357823e-06 -1.0563890134954993e-02 0.0000000000000000e+00  -1.1103962394033185e-05 -1.0112494536391396e-02 0.0000000000000000e+00  -3.8670652293894833e-06 -7.1971485478652579e-03 0.0000000000000000e+00  0.0000000000000000e+00 0.0000000000000000e+00 0.0000000000000000e+00  6.9122381844707217e-06 -1.0055154675289744e-02 0.0000000000000000e+00  1.4031775726078504e-05 -1.0581462869094758e-02 0.0000000000000000e+00  1.4552015670983282e-05 -1.0117802543760027e-02 0.0000000000000000e+00  1.0656956779094386e-05 -1.0640470917190675e-02 0.0000000000000000e+00  8.7580488171986642e-06 -7.2183007611002926e-03 0.0000000000000000e+00  0.0000000000000000e+00 0.0000000000000000e+00 0.0000000000000000e+00  7.5303295889971279e-06 -1.0028373448065472e-02 0.0000000000000000e+00  1.5580814554622527e-05 -1.0558419064868508e-02 0.0000000000000000e+00  2.2278204119260386e-05 -1.0099562382713123e-02 0.0000000000000000e+00  1.5941500003587316e-05 -1.0615081714904216e-02 0.0000000000000000e+00  1.2739305153647146e-05 -7.2044225947830295e-03 0.0000000000000000e+00  0.0000000000000000e+00 0.0000000000000000e+00 0.0000000000000000e+00  4.0899737322624462e-06 -1.0041229206034275e-02 0.0000000000000000e+00  -2.7420305667504447e-07 -1.0568760053879392e-02 0.0000000000000000e+00  -1.2087348124368430e-05 -1.0115466412639855e-02 0.0000000000000000e+00  -2.9420519391132936e-06 -1.0627834471144317e-02 0.0000000000000000e+00  -5.1759184714763320e-06 -7.2223997853380073e-03 0.0000000000000000e+00  0.0000000000000000e+00 0.0000000000000000e+00 0.0000000000000000e+00  1.4830449179781981e-05 -1.0063338011612534e-02 0.0000000000000000e+00  2.1815456767355659e-05 -1.0572897360264299e-02 0.0000000000000000e+00  2.1811461908834168e-05 -1.0176865987604070e-02 0.0000000000000000e+00  1.5475631193791539e-05 -1.0637063428922712e-02 0.0000000000000000e+00  1.8340058009021324e-05 -7.1437915460590175e-03 0.0000000000000000e+00  0.0000000000000000e+00 0.0000000000000000e+00 0.0000000000000000e+00  9.8325414908767602e-06 -1.0220000860188478e-02 0.0000000000000000e+00  1.6934678557645234e-05 -1.0615531646079901e-02 0.0000000000000000e+00  2.6165244453911768e-05 -9.8532841573094766e-03 0.0000000000000000e+00  -9.5452421997480131e-07 -1.0232090945097128e-02 0.0000000000000000e+00  -5.4128424728531383e-06 -1.0626992614850863e-02 0.0000000000000000e+00  -2.1360941581549429e-05 -9.8660773578049654e-03 0.0000000000000000e+00  1.3980957346424498e-05 -1.0589831855036655e-02 0.0000000000000000e+00  1.7551004669657515e-06 -6.8499406861515112e-03 0.0000000000000000e+00  7.7818619862450085e-06 -1.0349557000081253e-02 0.0000000000000000e+00  1.0266927550736062e-05 -1.0640756659579658e-02 0.0000000000000000e+00  1.2199831195007274e-05 -9.9259902049874220e-03 0.0000000000000000e+00  1.1685584416424633e-05 -1.0309766656781020e-02 0.0000000000000000e+00  1.1335426516433351e-05 -1.0635067304340407e-02 0.0000000000000000e+00  1.8361641863076093e-05 -9.9310271937801137e-03 0.0000000000000000e+00  1.0492317485455979e-05 -1.0677399138477499e-02 0.0000000000000000e+00  1.1763516513926968e-05 -1.0664866481537642e-02 0.0000000000000000e+00  1.1524154649770868e-05 -1.0677618768306512e-02 0.0000000000000000e+00  1.0976880440773718e-05 -1.0679494101093872e-02 0.0000000000000000e+00  1.0518031716234710e-05 -1.0669558073379607e-02 0.0000000000000000e+00  9.8726520334945541e-06 -1.0655980924993258e-02 0.0000000000000000e+00  8.1073912280954035e-06 -1.0639648620441429e-02 0.0000000000000000e+00  1.1617161957725838e-05 -1.0663113093300479e-02 0.0000000000000000e+00  1.1114022902431007e-05 -1.0665627513748093e-02 0.0000000000000000e+00  1.1908598229716915e-05 -1.0650802058597690e-02 0.0000000000000000e+00  3.8940223929389549e-06 -1.0674432205059545e-02 0.0000000000000000e+00  5.0129914551225836e-06 -1.0660974488445990e-02 0.0000000000000000e+00  2.2597758293375327e-06 -1.0674257041078905e-02 0.0000000000000000e+00  3.1057257470379103e-06 -1.0677014294984365e-02 0.0000000000000000e+00  1.9847329925917970e-06 -1.0667533992960674e-02 0.0000000000000000e+00  6.9027343803609002e-06 -1.0683509184837903e-02 0.0000000000000000e+00  6.8329672542672368e-06 -1.0672649662705135e-02 0.0000000000000000e+00  6.4651263334036831e-06 -1.0682950533348770e-02 0.0000000000000000e+00  7.0159849255895210e-06 -1.0685047659995502e-02 0.0000000000000000e+00  5.2092172406887004e-06 -1.0669936538061656e-02 0.0000000000000000e+00  9.4513213534894049e-06 -1.0242033772626946e-02 0.0000000000000000e+00  1.6732028699170825e-05 -1.0638521459988212e-02 0.0000000000000000e+00  2.5933339587401016e-05 -9.8758267941098810e-03 0.0000000000000000e+00  -6.9877568511974386e-07 -1.0599762727896629e-02 0.0000000000000000e+00  3.8964800234159637e-07 -6.8528730880516846e-03 0.0000000000000000e+00  8.3207013682094548e-06 -1.0248973735515485e-02 0.0000000000000000e+00  1.6022903873345508e-05 -1.0643682824935293e-02 0.0000000000000000e+00  2.5572917046782602e-05 -9.8813833117481417e-03 0.0000000000000000e+00  5.9279843178280404e-06 -1.0330774447881750e-02 0.0000000000000000e+00  1.0663879038591501e-05 -1.0618679449642721e-02 0.0000000000000000e+00  6.0277673115817209e-06 -6.9328920642748133e-03 0.0000000000000000e+00  -2.7528724838437246e-06 -1.0606367505046548e-02 0.0000000000000000e+00  -2.0181456919056400e-07 -6.8583292568248962e-03 0.0000000000000000e+00  -3.8944849636701814e-07 -1.0576860262680990e-02 0.0000000000000000e+00  6.9891452435380169e-07 -6.8322283650751022e-03 0.0000000000000000e+00  -1.1559525406745232e-05 -1.0283502377637916e-02 0.0000000000000000e+00  -6.9235888916527368e-06 -1.0630831237753924e-02 0.0000000000000000e+00  -2.5124220972369348e-05 -9.8780259555059854e-03 0.0000000000000000e+00  4.2260060132383614e-06 -1.0681893860416750e-02 0.0000000000000000e+00  7.1183291867311621e-06 -1.0685999716385230e-02 0.0000000000000000e+00  3.9736018767191081e-06 -1.0684911167182393e-02 0.0000000000000000e+00  1.2204589160007339e-05 -1.0665592862569325e-02 0.0000000000000000e+00  1.3579255329968162e-05 -1.0666016416590053e-02 0.0000000000000000e+00  1.1547340604238642e-05 -1.0667268452179319e-02 0.0000000000000000e+00  1.6165091145146239e-06 -1.0675767231045399e-02 0.0000000000000000e+00  -2.1346787491518277e-07 -1.0676456389618640e-02 0.0000000000000000e+00  2.1201328427571430e-06 -1.0677416833540492e-02 0.0000000000000000e+00  1.0096322114309041e-05 -1.0678155349981502e-02 0.0000000000000000e+00  1.2319275997176545e-05 -1.0679450797581900e-02 0.0000000000000000e+00  1.0476326977663972e-05 -1.0679607992996509e-02 0.0000000000000000e+00  -4.9099656197491603e-06 -1.0308996458148048e-02 0.0000000000000000e+00  -4.3768635700321202e-07 -1.0630857034234352e-02 0.0000000000000000e+00  -1.4321127720115160e-05 -9.9154148125617375e-03 0.0000000000000000e+00  6.7812448044329481e-06 -1.0634819750211107e-02 0.0000000000000000e+00  4.9415991067809010e-06 -1.0624500089349806e-02 0.0000000000000000e+00  5.0619169931329188e-06 -1.0673561057310160e-02 0.0000000000000000e+00  1.2255643879073542e-05 -1.0381285396205248e-02 0.0000000000000000e+00  5.7478453709206565e-06 -1.0601761035844271e-02 0.0000000000000000e+00  8.5903103038160599e-06 -1.0649889504575608e-02 0.0000000000000000e+00  5.8970626936068042e-06 -1.0629257294671032e-02 0.0000000000000000e+00  3.0992447395022377e-06 -1.0617462662757078e-02 0.0000000000000000e+00  3.086821