<?xml version="1.0"?>
<VTKFile type="UnstructuredGrid"  version="0.1"  >
<UnstructuredGrid>
<Piece  NumberOfPoints="2690" NumberOfCells="4864">
<Points>
<DataArray  type="Float64"  NumberOfComponents="3"  format="ascii">-5.024914967225643 22.00546554853763 0  -5.623617807462034 21.26802221311448 0  -5.024414876313027 21.50591516444157 0  -5.023847259434491 21.00550401672843 0  -5.624101556686409 21.76811941957711 0  -6.223311673077897 21.52988915689796 0  -9 21.99999999996945 0  -8.400512252278162 21.26364245921841 0  -9 21.49999999997139 0  -9 20.99999999997333 0  -8.400598329429714 21.76363602965954 0  -7.801115247614804 21.52725791284076 0  -9 32.9999999999446 0  -8.402405233784092 32.26362470588546 0  -9 32.49999999994358 0  -9 31.99999999994255 0  -8.402491373662805 32.76362625264206 0  -7.804901032482246 32.5272397620969 0  -5.03748245302875 33.00591266212339 0  -5.551644543419643 32.30220877715836 0  -5.036956996092864 32.50669591767981 0  -5.036367505904287 32.00572597011637 0  -5.552142210649757 32.8023590080107 0  -6.066825898174776 32.59795877674345 0  -5.061640310414708 54.00565392140766 0  -5.656140042824573 54.7428871074984 0  -5.655664636294259 54.24312137653174 0  -6.249638744926077 54.4797647119182 0  -5.062180584063292 54.50605685312424 0  -5.062693314446513 55.00570912515808 0  -9 54.99999999998974 0  -8.478135862603578 54.29707982582931 0  -9 54.49999999998872 0  -9 53.99999999998769 0  -8.478210256845314 54.7970569412777 0  -7.956361150082236 54.59412113056516 0  -9 39.99999999995897 0  -8.403867499068639 40.73860754684216 0  -8.403781375448251 40.23860862562915 0  -7.807644792465608 40.47720126328988 0  -9 40.49999999996 0  -9 40.99999999996102 0  -5.046640237796813 41.00524328617909 0  -5.615674024955014 40.27345748063131 0  -5.046120708571264 40.50608599508265 0  -5.045572047420452 40.00590489150294 0  -5.61615922418497 40.77336827529246 0  -6.185716811037479 40.54053895447243 0  -9 55.99999999999179 0  -8.43103730640296 56.74435242260437 0  -8.430963576159256 56.24433808745688 0  -7.862004424406055 56.48867555937322 0  -9 56.49999999999282 0  -9 56.99999999999384 0  -5.063925612627391 56.00540674228964 0  -5.633645142492907 56.74874064249003 0  -5.633172029910067 56.24871824169509 0  -6.202352463671068 56.49135727577165 0  -5.064499857154064 56.50623772656964 0  -5.065010405992874 57.0057250143394 0  -7.45662527529558 43.00309318711556 0  -6.619200585978559 43.11300092498986 0  -7.221213148718063 43.34095464642179 0  -6.985846631551087 43.67882078119311 0  -6.854568271723458 42.77510600579501 0  -6.252431028337323 42.54711918525572 0  -6.596509449144132 49.00582923314139 0  -7.432509124812468 48.89559550854558 0  -6.831471239083186 48.66792634957849 0  -7.066480983318155 48.33000654492753 0  -7.19750264811363 49.23348645774512 0  -7.798415301291868 49.46118555731336 0  -6.59441267433861 46.00547738538916 0  -7.431142960294454 45.8953694305427 0  -6.829583039614825 45.66751224908075 0  -7.064800379262754 45.32957527911037 0  -7.195929079795412 46.23330274401013 0  -7.79736570001568 46.46110735270134 0  -6.567306901626945 7.005679669276407 0  -7.413466630752864 6.895527386384496 0  -6.80513126715092 6.667773463689997 0  -7.043002597183722 6.329868716280079 0  -7.175598797499742 7.233431550401171 0  -7.783811399907369 7.461178909970635 0  -7.450816643093471 30.00305839929616 0  -6.610238802823032 30.11292429474625 0  -7.214518723976531 30.34083694224593 0  -6.978266963637893 30.67859698327685 0  -6.846492776006106 29.77512773182955 0  -6.242087930803442 29.54722651473187 0  -6.565277242603273 4.005409503711967 0  -7.412248360540103 4.111699806519472 0  -6.803713506514607 4.342265142086255 0  -7.042106270790001 4.679102706405896 0  -7.173858438014386 3.774850842632123 0  -7.782507963041827 3.544328161047678 0  -6.56937330624911 10.00573032256233 0  -7.414909841281854 10.11191420105806 0  -6.807413611529073 10.34251417433254 0  -7.045409391457603 10.67929810017699 0  -7.176910906159658 9.77513551879966 0  -7.784528112822533 9.544534426897199 0  -6.571444396923099 13.00577836856646 0  -7.416162908818155 12.89560694653514 0  -6.808861821201799 12.66787403620217 0  -7.046325934483872 12.32997166645233 0  -7.178701219955287 13.23351794547246 0  -7.785879669787291 13.46124093365708 0  -6.57352303022472 16.0058668324788 0  -7.41751908978891 15.89563245691837 0  -6.810736297665489 15.66796887990833 0  -7.047996864521721 15.33005684899135 0  -7.18026171759141 16.23352347173539 0  -7.786920767447867 16.46121324169032 0  -6.575618404160237 19.00525324158862 0  -7.418984634636013 19.11154270297683 0  -6.813054495410788 19.34194425149855 0  -7.050443061406947 19.67866823067413 0  -7.18159271486711 18.77480211074487 0  -7.787648134840212 18.54433561661443 0  -6.581181632798739 27.00505636234095 0  -7.422612573632488 27.11141914182457 0  -6.818070204648882 27.34185773196873 0  -7.054913101187521 27.67866691864193 0  -7.18576715611981 26.77457907673494 0  -7.790432041748703 26.54414766117389 0  -8.273082561212844 19.09544871783404 0  -8.030384746166851 18.81988352332687 0  -8.393776622297217 18.27218305096453 0  -8.636483750012927 18.54774823357177 0  -9 17.99999999998495 0  -8.274750839009371 27.09538659636875 0  -8.032610597246768 26.81976779557294 0  -8.395169047521664 26.27206884472357 0  -8.637318478146828 26.54769229825429 0  -9 25.99999999995395 0  -8.272414837315601 15.90783961106847 0  -8.029648524934331 16.18452953509847 0  -8.39350748005541 16.73059417417154 0  -8.636264495644872 16.45391076884014 0  -9 16.99999999998883 0  -5.758825567731424 30.10058173264215 0  -6.000436077808308 29.8238968799437 0  -5.63755823917042 29.27762453653301 0  -5.395933778362484 29.55456571312662 0  -5.032871280310121 29.00545594218102 0  -8.27179110079174 12.90783765380989 0  -8.028816230390625 13.18453814121159 0  -8.392986558007591 13.73062284419564 0  -8.635952286907846 13.45392147483739 0  -9 13.99999999999401 0  -8.271209113261706 10.09562271720226 0  -8.027887586888447 9.820078805849612 0  -8.3922173489689 9.272266298210949 0  -8.635548128960332 9.54781026585143 0  -9 8.99999999999857 0  -8.269989378258513 4.095521262765105 0  -8.026266031702507 3.81992929281205 0  -8.391216037779836 3.272156135808777 0  -8.634944262201689 3.547749270746304 0  -9 2.999999999998668 0  -8.270551879989167 6.907797836902443 0  -8.027162589493189 7.184487283194992 0  -8.391952216456176 7.730591102060688 0  -8.635332216838226 7.453902254866272 0  -9 7.999999999999485 0  -8.278678851682777 45.90772507282323 0  -8.0380030453057 46.18440990843649 0  -8.398729928198948 46.73056350431275 0  -8.639396389639337 46.45387922427392 0  -9 46.99999999997333 0  -8.279306902370015 48.90781948956246 0  -8.03884163908663 49.18450555036039 0  -8.39925505970009 49.73057995503383 0  -8.639711015524419 49.45390183994293 0  -9 49.99999999997949 0  -5.770985196434988 43.10064700643994 0  -6.011687098077054 42.8238800659629 0  -5.65016838470949 42.27744063820658 0  -5.409453713494968 42.55449337605243 0  -5.047744129950193 42.00523676505753 0  -5.748356118511032 23.92306799143124 0  -5.995662083474833 24.1902147972978 0  -5.63562087226066 24.7327040623886 0  -6.242927435500405 24.45737922900499 0  -5.388338592086427 24.46581641062842 0  -5.028406147296296 25.00544025008758 0  -8.284648634851042 52.08520440517532 0  -8.039501866899688 51.81802495168425 0  -8.39711001272337 51.27544535055139 0  -7.794316754338688 51.55086085189569 0  -8.64226763565023 51.54262446434895 0  -9 50.99999999998153 0  -5.761600356062869 38.09034531770526 0  -6.007434152360994 37.82198181843823 0  -5.647744330690482 37.28071391785755 0  -6.25330839215749 37.55363897853173 0  -5.401895160763942 37.5493857691469 0  -5.042006894651417 37.00499335256601 0  -5.758637088660603 34.92301429822909 0  -6.005163838431428 35.19012225466505 0  -5.646266553312766 35.73254413240839 0  -6.251650035812785 35.45724737243714 0  -5.399760011191781 35.46573320325424 0  -5.040980220685261 36.00520079142669 0  -7.899838374486422 50.50270954210254 0  -7.847069435289003 51.02679203745813 0  -8.449959222888188 50.75134041514597 0  -6.146303652551925 36.50539811766148 0  -6.19981223420432 37.02948435015508 0  -5.59415918986418 36.75616516681541 0  -6.198970185554483 35.98128865055126 0  -5.593674018070779 36.25610945337813 0  -5.998376830231237 25.26589537879444 0  -6.12063975876495 24.86164973299341 0  -5.51340430315936 25.13666499713042 0  -8.034605263788405 25.74777776456816 0  -7.91250468063779 26.145962545179 0  -8.517320148555298 25.87388975398976 0  -6.962439923989684 34.37988572933194 0  -6.606988643987291 34.91859660376606 0  -6.861599162639231 35.24260867774495 0  -7.21705692858117 34.70394225640523 0  -7.471625810758597 35.0279891822145 0  -7.086799223469978 52.62806973779314 0  -7.440501981714161 52.0894940787398 0  -7.187182756099651 51.76556640690634 0  -6.833485870837293 52.30415828274277 0  -6.580124134464658 51.98026272941715 0  -6.964942665985237 38.62804681127195 0  -6.609181612250187 38.0908741520369 0  -6.863156852312321 37.76579562521928 0  -7.218911647939979 38.30301534658384 0  -7.472928631449057 37.97797257605124 0  -6.955978671225478 23.37991537260433 0  -6.599397199343744 23.91866561651278 0  -6.85481326958534 24.24270210571936 0  -7.211401494246779 23.7039896557395 0  -7.466776448635174 24.02804863087481 0  -7.88945400370245 17.50255919090192 0  -7.838543164188078 18.02345550268977 0  -8.444766972079538 17.75126467693047 0  -7.838194961256882 16.98188920205899 0  -8.444687050762687 17.25128781070345 0  -7.886602311887484 8.502619507820688 0  -7.835557689942044 9.023577478138815 0  -8.44334044273972 8.751310350243655 0  -7.932063582075988 2.417872182508274 0  -7.857269611339244 2.981093223771544 0  -8.466069139132507 2.708943823199665 0  -7.835214392819195 7.981900644529365 0  -8.443261688656539 8.251307907176828 0  -7.849134622332864 49.98195078248244 0  -8.449878896174088 50.25136311129997 0  -6.0617936372587 41.59840128103491 0  -6.157124423469622 42.07278299400154 0  -5.554
[...]
<PointData  Vectors="f_27"> 
<DataArray  type="Float64"  Name="f_27"  NumberOfComponents="3" format="ascii">0.0000000000000000e+00 0.0000000000000000e+00 0.0000000000000000e+00  2.2142804016432632e-06 -7.6763874546234706e-03 0.0000000000000000e+00  0.0000000000000000e+00 0.0000000000000000e+00 0.0000000000000000e+00  0.0000000000000000e+00 0.0000000000000000e+00 0.0000000000000000e+00  -1.2986853841320719e-05 -1.0739885224092870e-02 0.0000000000000000e+00  -1.3877795544904750e-07 -1.1052199130933377e-02 0.0000000000000000e+00  0.0000000000000000e+00 0.0000000000000000e+00 0.0000000000000000e+00  1.0077550066223439e-05 -7.8156006173658848e-03 0.0000000000000000e+00  0.0000000000000000e+00 0.0000000000000000e+00 0.0000000000000000e+00  0.0000000000000000e+00 0.0000000000000000e+00 0.0000000000000000e+00  3.3739954442165604e-05 -1.0718976916242708e-02 0.0000000000000000e+00  2.0687169170773002e-05 -1.1098452873224073e-02 0.0000000000000000e+00  0.0000000000000000e+00 0.0000000000000000e+00 0.0000000000000000e+00  9.2680795542326338e-06 -7.6529947687424471e-03 0.0000000000000000e+00  0.0000000000000000e+00 0.0000000000000000e+00 0.0000000000000000e+00  0.0000000000000000e+00 0.0000000000000000e+00 0.0000000000000000e+00  3.2636583574191457e-05 -1.0692195390095206e-02 0.0000000000000000e+00  2.0145773437080912e-05 -1.1072373188316503e-02 0.0000000000000000e+00  0.0000000000000000e+00 0.0000000000000000e+00 0.0000000000000000e+00  2.1319481621296345e-06 -8.0360255673583535e-03 0.0000000000000000e+00  0.0000000000000000e+00 0.0000000000000000e+00 0.0000000000000000e+00  0.0000000000000000e+00 0.0000000000000000e+00 0.0000000000000000e+00  -4.2922950245581610e-06 -1.0736556923329355e-02 0.0000000000000000e+00  3.9693740347943612e-06 -1.1100785793590076e-02 0.0000000000000000e+00  0.0000000000000000e+00 0.0000000000000000e+00 0.0000000000000000e+00  8.8399132557686445e-06 -7.9764491752747305e-03 0.0000000000000000e+00  3.3161141823210819e-05 -1.0674260002153668e-02 0.0000000000000000e+00  1.8909242570899312e-05 -1.1036755079518484e-02 0.0000000000000000e+00  0.0000000000000000e+00 0.0000000000000000e+00 0.0000000000000000e+00  0.0000000000000000e+00 0.0000000000000000e+00 0.0000000000000000e+00  0.0000000000000000e+00 0.0000000000000000e+00 0.0000000000000000e+00  5.8942131239002500e-06 -7.9639151605524813e-03 0.0000000000000000e+00  0.0000000000000000e+00 0.0000000000000000e+00 0.0000000000000000e+00  0.0000000000000000e+00 0.0000000000000000e+00 0.0000000000000000e+00  1.2576337742949244e-05 -1.0769612954185831e-02 0.0000000000000000e+00  1.1327783571397837e-05 -1.1061990199732287e-02 0.0000000000000000e+00  0.0000000000000000e+00 0.0000000000000000e+00 0.0000000000000000e+00  5.4024418240106178e-06 -7.6216414118095944e-03 0.0000000000000000e+00  -1.0935533875690942e-05 -1.0680727253744296e-02 0.0000000000000000e+00  1.1053215040769342e-06 -1.1054909722639355e-02 0.0000000000000000e+00  0.0000000000000000e+00 0.0000000000000000e+00 0.0000000000000000e+00  0.0000000000000000e+00 0.0000000000000000e+00 0.0000000000000000e+00  0.0000000000000000e+00 0.0000000000000000e+00 0.0000000000000000e+00  1.2606827331725236e-05 -7.7625502517177317e-03 0.0000000000000000e+00  0.0000000000000000e+00 0.0000000000000000e+00 0.0000000000000000e+00  0.0000000000000000e+00 0.0000000000000000e+00 0.0000000000000000e+00  3.2011396336474091e-07 -1.0801472782991846e-02 0.0000000000000000e+00  7.8717861550555980e-06 -1.1080231151516549e-02 0.0000000000000000e+00  0.0000000000000000e+00 0.0000000000000000e+00 0.0000000000000000e+00  1.5299621573055789e-05 -8.2684254083950932e-03 0.0000000000000000e+00  -7.9905689580601752e-07 -1.0705974089241573e-02 0.0000000000000000e+00  1.1975022892726766e-05 -1.1052658351846833e-02 0.0000000000000000e+00  0.0000000000000000e+00 0.0000000000000000e+00 0.0000000000000000e+00  0.0000000000000000e+00 0.0000000000000000e+00 0.0000000000000000e+00  0.0000000000000000e+00 0.0000000000000000e+00 0.0000000000000000e+00  -8.3621861684756437e-07 -8.2697503378254128e-03 0.0000000000000000e+00  1.8552262940725889e-05 -1.0705235879488994e-02 0.0000000000000000e+00  6.9902786413880619e-06 -1.1048806909104071e-02 0.0000000000000000e+00  0.0000000000000000e+00 0.0000000000000000e+00 0.0000000000000000e+00  0.0000000000000000e+00 0.0000000000000000e+00 0.0000000000000000e+00  1.5273539401187498e-05 -1.1367929032754433e-02 0.0000000000000000e+00  1.5825382164002662e-05 -1.1375655279182958e-02 0.0000000000000000e+00  1.3772455703054600e-05 -1.1377009593595881e-02 0.0000000000000000e+00  1.2762221688997564e-05 -1.1377437422937514e-02 0.0000000000000000e+00  1.4912931800050304e-05 -1.1375960735190321e-02 0.0000000000000000e+00  8.9780969151275864e-06 -1.1334647789164140e-02 0.0000000000000000e+00  1.9998995794132046e-05 -1.1350968852229410e-02 0.0000000000000000e+00  1.8338578016441483e-05 -1.1345039911805117e-02 0.0000000000000000e+00  2.0209832379497566e-05 -1.1359871744176757e-02 0.0000000000000000e+00  1.9884840271639901e-05 -1.1353957247715115e-02 0.0000000000000000e+00  1.7442431527944142e-05 -1.1357468038721261e-02 0.0000000000000000e+00  1.1925054525564933e-05 -1.1315778018299092e-02 0.0000000000000000e+00  1.2302668453562251e-05 -1.1358235318555792e-02 0.0000000000000000e+00  1.1575656973656387e-05 -1.1364247706556538e-02 0.0000000000000000e+00  1.0748568630119148e-05 -1.1368422999099690e-02 0.0000000000000000e+00  1.0028452366704077e-05 -1.1371131281985815e-02 0.0000000000000000e+00  1.1983916360301040e-05 -1.1362806636585598e-02 0.0000000000000000e+00  8.4952535174581174e-06 -1.1319786261007419e-02 0.0000000000000000e+00  1.4044061073680691e-05 -1.1426547373480584e-02 0.0000000000000000e+00  1.1934922869535675e-05 -1.1433136686029377e-02 0.0000000000000000e+00  1.3041880617357687e-05 -1.1436477807679384e-02 0.0000000000000000e+00  1.3918990899324897e-05 -1.1437574935614040e-02 0.0000000000000000e+00  1.1875982241329651e-05 -1.1433934360670894e-02 0.0000000000000000e+00  7.3014752055323323e-06 -1.1394843258620582e-02 0.0000000000000000e+00  1.1585740367300082e-05 -1.1385764830591281e-02 0.0000000000000000e+00  1.6882545563042071e-05 -1.1382948111153632e-02 0.0000000000000000e+00  1.1434918238860652e-05 -1.1398893402690083e-02 0.0000000000000000e+00  1.1831157644664113e-05 -1.1391464791409223e-02 0.0000000000000000e+00  1.4557514706554143e-05 -1.1393095878481987e-02 0.0000000000000000e+00  1.2635598757468850e-05 -1.1348898367097413e-02 0.0000000000000000e+00  1.7735396037946265e-05 -1.1435236761820934e-02 0.0000000000000000e+00  1.7551919171694828e-05 -1.1439463629114336e-02 0.0000000000000000e+00  1.7941050005222043e-05 -1.1443139590476650e-02 0.0000000000000000e+00  1.6840075343942404e-05 -1.1442124663134410e-02 0.0000000000000000e+00  1.7574460853375672e-05 -1.1441401099284983e-02 0.0000000000000000e+00  2.0517431501862660e-05 -1.1404106436950249e-02 0.0000000000000000e+00  2.1080379842670228e-05 -1.1423021772404030e-02 0.0000000000000000e+00  2.0198952942158762e-05 -1.1426680874093801e-02 0.0000000000000000e+00  1.9918638504630510e-05 -1.1430354454539254e-02 0.0000000000000000e+00  1.8439023565765005e-05 -1.1429611025490550e-02 0.0000000000000000e+00  2.2003778074563098e-05 -1.1428811363176453e-02 0.0000000000000000e+00  2.6358101158677888e-05 -1.1384125423247135e-02 0.0000000000000000e+00  1.4675089757073194e-05 -1.1414456263432538e-02 0.0000000000000000e+00  1.3545418109835514e-05 -1.1421004050778366e-02 0.0000000000000000e+00  1.4136527774449938e-05 -1.1424476912586625e-02 0.0000000000000000e+00  1.5293360850993526e-05 -1.1425700200686745e-02 0.0000000000000000e+00  1.2899246354522282e-05 -1.1420850016078904e-02 0.0000000000000000e+00  8.7351671696484753e-06 -1.1378699686820305e-02 0.0000000000000000e+00  1.9314603687111908e-05 -1.1411478603278671e-02 0.0000000000000000e+00  1.7791557534937403e-05 -1.1405185400721725e-02 0.0000000000000000e+00  1.9638483358312218e-05 -1.1420144224095643e-02 0.0000000000000000e+00  1.9443499984222379e-05 -1.1414109111234624e-02 0.0000000000000000e+00  1.6709540974056365e-05 -1.1417739259229998e-02 0.0000000000000000e+00  1.1274977480695257e-05 -1.1375905993506782e-02 0.0000000000000000e+00  2.6922741190406201e-05 -1.1404886463196406e-02 0.0000000000000000e+00  2.0255701247040557e-05 -1.1402868868961528e-02 0.0000000000000000e+00  2.4733686511637653e-05 -1.1417859720525350e-02 0.0000000000000000e+00  2.0309692681214614e-05 -1.1409486553209631e-02 0.0000000000000000e+00  2.4060504841775213e-05 -1.1414987669215079e-02 0.0000000000000000e+00  2.6670501783102754e-05 -1.1367903817307942e-02 0.0000000000000000e+00  2.2226712552466548e-05 -1.1388508126092003e-02 0.0000000000000000e+00  1.9729249353394768e-05 -1.1399252902795523e-02 0.0000000000000000e+00  2.2325896049232057e-05 -1.1401271923719885e-02 0.0000000000000000e+00  1.9786436995228157e-05 -1.1397245200206008e-02 0.0000000000000000e+00  1.9378793391348465e-05 -1.1399882430502268e-02 0.0000000000000000e+00  2.1103238226156725e-05 -1.1360606060310113e-02 0.0000000000000000e+00  1.2255440958540517e-05 -1.0692497928431990e-02 0.0000000000000000e+00  2.3128316678925473e-05 -1.1298770825785460e-02 0.0000000000000000e+00  3.1615308006611482e-05 -1.0814436035941424e-02 0.0000000000000000e+00  1.9168128492669460e-05 -7.7029358148889655e-03 0.0000000000000000e+00  0.0000000000000000e+00 0.0000000000000000e+00 0.0000000000000000e+00  1.4224592389334424e-05 -1.0689327977553710e-02 0.0000000000000000e+00  1.8890964492321892e-05 -1.1287497340654441e-02 0.0000000000000000e+00  2.3606008496152021e-05 -1.0805974898074180e-02 0.0000000000000000e+00  1.5129556296049985e-05 -7.6867305105728688e-03 0.0000000000000000e+00  0.0000000000000000e+00 0.0000000000000000e+00 0.0000000000000000e+00  1.2987765462509682e-05 -1.0708867868127856e-02 0.0000000000000000e+00  7.7106885128776256e-06 -1.1299734214543991e-02 0.0000000000000000e+00  -8.4597001679789667e-07 -1.0886600291333948e-02 0.0000000000000000e+00  -3.9507658930873996e-06 -7.6318596872306148e-03 0.0000000000000000e+00  0.0000000000000000e+00 0.0000000000000000e+00 0.0000000000000000e+00  2.0988941058952145e-05 -1.0674760269496607e-02 0.0000000000000000e+00  2.2853816761823955e-05 -1.1276406666653768e-02 0.0000000000000000e+00  3.8421824446369744e-06 -1.0805357444724925e-02 0.0000000000000000e+00  4.7904190072275104e-06 -7.6901024282887672e-03 0.0000000000000000e+00  0.0000000000000000e+00 0.0000000000000000e+00 0.0000000000000000e+00  1.3890581919639866e-05 -1.0708182846487843e-02 0.0000000000000000e+00  9.1611870953718144e-06 -1.1305419527293694e-02 0.0000000000000000e+00  1.9742190373485426e-06 -1.0829003032274201e-02 0.0000000000000000e+00  3.1668066000139131e-06 -7.7075938880793535e-03 0.0000000000000000e+00  0.0000000000000000e+00 0.0000000000000000e+00 0.0000000000000000e+00  1.7079966047015996e-05 -1.0710938772836779e-02 0.0000000000000000e+00  2.4683800495424932e-05 -1.1311635263808770e-02 0.0000000000000000e+00  3.2026938440760215e-05 -1.0827682077128925e-02 0.0000000000000000e+00  2.0559568082868494e-05 -7.7175674190785512e-03 0.0000000000000000e+00  0.0000000000000000e+00 0.0000000000000000e+00 0.0000000000000000e+00  1.7259350301549322e-05 -1.0739803673756210e-02 0.0000000000000000e+00  2.2170611308638990e-05 -1.1324389283557206e-02 0.0000000000000000e+00  2.7802154779650230e-05 -1.0914481484697213e-02 0.0000000000000000e+00  2.3004904959454241e-05 -7.6591842095809380e-03 0.0000000000000000e+00  0.0000000000000000e+00 0.0000000000000000e+00 0.0000000000000000e+00  8.5058658415660359e-06 -1.0733186992806726e-02 0.0000000000000000e+00  4.1154923641238215e-06 -1.1316598006241265e-02 0.0000000000000000e+00  -3.1844525041012131e-06 -1.0902085124708605e-02 0.0000000000000000e+00  -5.5664945616311412e-06 -7.6494506859786475e-03 0.0000000000000000e+00  0.0000000000000000e+00 0.0000000000000000e+00 0.0000000000000000e+00  1.4819528848193546e-05 -1.0646023409285379e-02 0.0000000000000000e+00  9.2521779706523573e-06 -1.1245272765703963e-02 0.0000000000000000e+00  2.3200033893187653e-06 -1.0771285613552910e-02 0.0000000000000000e+00  3.4207937709255550e-06 -7.6436705389977136e-03 0.0000000000000000e+00  0.0000000000000000e+00 0.0000000000000000e+00 0.0000000000000000e+00  1.3358116782164854e-05 -1.0646367007814130e-02 0.0000000000000000e+00  8.2934858127406914e-06 -1.1238868166452027e-02 0.0000000000000000e+00  -4.5923191322260559e-08 -1.0828341318023085e-02 0.0000000000000000e+00  -3.3935423707318330e-06 -7.5683845118803775e-03 0.0000000000000000e+00  0.0000000000000000e+00 0.0000000000000000e+00 0.0000000000000000e+00  1.7693898710062923e-05 -1.0659003839310295e-02 0.0000000000000000e+00  1.8723157669734328e-05 -1.1259253751265149e-02 0.0000000000000000e+00  -3.7080532671256600e-06 -1.0786387809460372e-02 0.0000000000000000e+00  2.1757952052880804e-06 -7.6713950950033213e-03 0.0000000000000000e+00  0.0000000000000000e+00 0.0000000000000000e+00 0.0000000000000000e+00  1.8722850827781267e-05 -1.0734986709174740e-02 0.0000000000000000e+00  2.9498915210207934e-05 -1.1298593708676996e-02 0.0000000000000000e+00  2.3028742864322919e-05 -1.0795994093229433e-02 0.0000000000000000e+00  2.1568542847419394e-05 -1.1360878032515677e-02 0.0000000000000000e+00  1.5412220051414411e-05 -7.6979802941723324e-03 0.0000000000000000e+00  0.0000000000000000e+00 0.0000000000000000e+00 0.0000000000000000e+00  1.6007948495600164e-05 -1.0676808424795561e-02 0.0000000000000000e+00  2.5066301318368724e-05 -1.1243183126604321e-02 0.0000000000000000e+00  3.1961250081117138e-05 -1.0755284346629247e-02 0.0000000000000000e+00  2.6130492526962197e-05 -1.1303511413299307e-02 0.0000000000000000e+00  1.9046616249767928e-05 -7.6614930326041990e-03 0.0000000000000000e+00  0.0000000000000000e+00 0.0000000000000000e+00 0.0000000000000000e+00  1.6082977716323101e-05 -1.0706666011449531e-02 0.0000000000000000e+00  1.5082363496894449e-05 -1.1268055193203473e-02 0.0000000000000000e+00  -6.1194485842677313e-06 -1.0793124028939036e-02 0.0000000000000000e+00  7.1262567434871119e-06 -1.1331590178622815e-02 0.0000000000000000e+00  1.1595864832323855e-06 -7.7053700304242625e-03 0.0000000000000000e+00  0.0000000000000000e+00 0.0000000000000000e+00 0.0000000000000000e+00  2.7428652703597160e-05 -1.0730825995191078e-02 0.0000000000000000e+00  3.8334030970604176e-05 -1.1276495267680065e-02 0.0000000000000000e+00  3.0230833367539589e-05 -1.0848504417314610e-02 0.0000000000000000e+00  2.6762671739557891e-05 -1.1345030580752273e-02 0.0000000000000000e+00  2.5504415262490035e-05 -7.6036208982792584e-03 0.0000000000000000e+00  0.0000000000000000e+00 0.0000000000000000e+00 0.0000000000000000e+00  1.9358549354933329e-05 -1.0882620138303815e-02 0.0000000000000000e+00  2.7215346920628925e-05 -1.1304828866252158e-02 0.0000000000000000e+00  3.5865318690855359e-05 -1.0490578868394286e-02 0.0000000000000000e+00  1.0755543316640623e-06 -1.0910625862779289e-02 0.0000000000000000e+00  1.0419883594131117e-06 -1.1331709027580045e-02 0.0000000000000000e+00  -2.4638424683799087e-05 -1.0519690691952906e-02 0.0000000000000000e+00  2.2096964741480530e-05 -1.1293003932154684e-02 0.0000000000000000e+00  -1.8582807905905912e-06 -7.3002928569207573e-03 0.0000000000000000e+00  1.1264387254227513e-05 -1.1048205022925398e-02 0.0000000000000000e+00  1.8454775353940232e-05 -1.1359900666738365e-02 0.0000000000000000e+00  1.1135662798729405e-05 -1.0598378700247555e-02 0.0000000000000000e+00  1.9989655797182378e-05 -1.1004915847032923e-02 0.0000000000000000e+00  2.0341671070561385e-05 -1.1352188380394021e-02 0.0000000000000000e+00  2.6717967407141582e-05 -1.0600429919727981e-02 0.0000000000000000e+00  2.0942149197091094e-05 -1.1388565464296166e-02 0.0000000000000000e+00  2.4310138726876608e-05 -1.1375153175547461e-02 0.0000000000000000e+00  2.2191408591911402e-05 -1.1388797137019993e-02 0.0000000000000000e+00  2.1615273084684523e-05 -1.1390636809662447e-02 0.0000000000000000e+00  2.0125470150460611e-05 -1.1379741015607346e-02 0.0000000000000000e+00  2.0492509435029795e-05 -1.1344501500563082e-02 0.0000000000000000e+00  1.7924740999034843e-05 -1.1328665238917108e-02 0.0000000000000000e+00  2.2328296489083485e-05 -1.1353027241395173e-02 0.0000000000000000e+00  2.2379864798679760e-05 -1.1354731526860451e-02 0.0000000000000000e+00  2.2885912824046608e-05 -1.1338699674662901e-02 0.0000000000000000e+00  1.4064973340193840e-05 -1.1380844092500744e-02 0.0000000000000000e+00  1.7278580306382730e-05 -1.1366440387744394e-02 0.0000000000000000e+00  1.2395206156540483e-05 -1.1380654425594451e-02 0.0000000000000000e+00  1.3345047371978693e-05 -1.1383798662246368e-02 0.0000000000000000e+00  1.1126543006823259e-05 -1.1374011986758572e-02 0.0000000000000000e+00  1.6836970802801625e-05 -1.1407016676608969e-02 0.0000000000000000e+00  1.8812811164600905e-05 -1.1395720786576864e-02 0.0000000000000000e+00  1.6763699176618395e-05 -1.1406540691618783e-02 0.0000000000000000e+00  1.7174614535149895e-05 -1.1408398238854657e-02 0.0000000000000000e+00  1.4360296703077163e-05 -1.1392002137648731e-02 0.0000000000000000e+00  1.8934636494152321e-05 -1.0942565022315527e-02 0.0000000000000000e+00  2.7200027061418058e-05 -1.1365558653340987e-02 0.0000000000000000e+00  3.5952669444888620e-05 -1.0551742795402889e-02 0.0000000000000000e+00  8.6226846283450958e-06 -1.1324796120101815e-02 0.0000000000000000e+00  6.2055945624356891e-06 -7.3234233597469587e-03 0.0000000000000000e+00  1.7548173694195415e-05 -1.0958843271820944e-02 0.0000000000000000e+00  2.6296131418899306e-05 -1.1379920384694354e-02 0.0000000000000000e+00  3.5621467086828257e-05 -1.0566095585793991e-02 0.0000000000000000e+00  1.5144013342116809e-05 -1.1049957277542464e-02 0.0000000000000000e+00  2.0305735558888781e-05 -1.1357408667002442e-02 0.0000000000000000e+00  1.2022182229606404e-05 -7.4204349411692433e-03 0.0000000000000000e+00  6.0424213511164594e-06 -1.1340787995454878e-02 0.0000000000000000e+00  5.4540633728844190e-06 -7.3370798675284335e-03 0.0000000000000000e+00  9.2276737253782172e-06 -1.1264131330388562e-02 0.0000000000000000e+00  6.6778362508897232e-06 -7.2687239624023891e-03 0.0000000000000000e+00  -9.1801234720114002e-06 -1.0962248820417271e-02 0.0000000000000000e+00  1.1985496370039480e-06 -1.1332749065908816e-02 0.0000000000000000e+00  -2.5859053461651648e-05 -1.0528546051204559e-02 0.0000000000000000e+00  1.3254601468764944e-05 -1.1404821412888400e-02 0.0000000000000000e+00  1.6742085361281855e-05 -1.1409687357053262e-02 0.0000000000000000e+00  1.3468489711726257e-05 -1.1407990647733611e-02 0.0000000000000000e+00  2.2836590957207726e-05 -1.1356442670456398e-02 0.0000000000000000e+00  2.4242993734076590e-05 -1.1357529873858557e-02 0.0000000000000000e+00  2.2139887209042875e-05 -1.1357430690082744e-02 0.0000000000000000e+00  1.0203508149906368e-05 -1.1382937795723115e-02 0.0000000000000000e+00  8.5872882510723415e-06 -1.1383306623754297e-02 0.0000000000000000e+00  1.1382945717755417e-05 -1.1384592279634816e-02 0.0000000000000000e+00  1.9243780870380247e-05 -1.1388794494899700e-02 0.0000000000000000e+00  2.1982981092638463e-05 -1.1390409131821683e-02 0.0000000000000000e+00  2.0245488135663821e-05 -1.1390454226892277e-02 0.0000000000000000e+00  -2.0953008917662464e-06 -1.1001222436480612e-02 0.0000000000000000e+00  7.3461265361187265e-06 -1.1344348513113410e-02 0.0000000000000000e+00  -1.6427798021233351e-05 -1.0579076026910959e-02 0.0000000000000000e+00  1.6590952425577555e-05 -1.1335142400943797e-02 0.0000000000000000e+00  1.7251948996818579e-05 -1.1324467669847738e-02 0.0000000000000000e+00  1.5264930324197573e-05 -1.1376900855593413e-02 0.0000000000000000e+00  2.3044181121481394e-05 -1.1057583513750949e-02 0.0000000000000000e+00  1.6432516249758990e-05 -1.1292187751380788e-02 0.0000000000000000e+00  2.0192697639792465e-05 -1.1344015061982184e-02 0.0000000000000000e+00  1.4725477679410933e-05 -1.1325025589971692e-02 0.0000000000000000e+00  1.2415952521540903e-05 -1.1311307584908033e-02 0.0000000000000000e+00  1.2185213923791265e-05 -1.13660118830