<?xml version="1.0"?>
<VTKFile type="UnstructuredGrid"  version="0.1"  >
<UnstructuredGrid>
<Piece  NumberOfPoints="2530" NumberOfCells="4544">
<Points>
<DataArray  type="Float64"  NumberOfComponents="3"  format="ascii">-0.005 0.02899999999991747 0  -0.005567606561449265 0.02972952735170602 0  -0.005567606561449265 0.02922952735170672 0  -0.006135213122898529 0.02945905470349596 0  -0.005 0.02949999999991678 0  -0.005 0.02999999999991609 0  -0.008999999999999999 0.02999999999991609 0  -0.008477881325601233 0.02929081058473642 0  -0.008999999999999999 0.02949999999991678 0  -0.008999999999999999 0.02899999999991747 0  -0.008477881325601233 0.02979081058473573 0  -0.007955762651202469 0.02958162116955536 0  -0.008999999999999999 0.05699999999999127 0  -0.008455575182696982 0.05771508614433647 0  -0.008455575182696982 0.05721508614433456 0  -0.007911150365393967 0.05743017228867785 0  -0.008999999999999999 0.05749999999999318 0  -0.008999999999999999 0.05799999999999508 0  -0.006562500000003323 0.04699999999996404 0  -0.007410380031513026 0.04710817040743875 0  -0.006801005031513838 0.04733733707410809 0  -0.007039510063024354 0.04767467414825214 0  -0.007171875000002511 0.0467708333332947 0  -0.007781250000001699 0.04654166666662536 0  -0.006562499999996975 0.007999999999982715 0  -0.007410380031513406 0.007891829592506899 0  -0.006801005031512716 0.007662662925842622 0  -0.007039510063028456 0.007325325851702528 0  -0.007171874999997664 0.008229166666646992 0  -0.007781249999998355 0.008458333333311269 0  -0.006562499999996577 0.01099999999997411 0  -0.007410380031513544 0.01110817040744999 0  -0.006801005031512696 0.01133733707411394 0  -0.007039510063028815 0.01167467414825377 0  -0.007171874999997425 0.01077083333331016 0  -0.007781249999998272 0.01054166666664622 0  -0.005 0.02399999999993442 0  -0.005590674212597458 0.02326230314954376 0  -0.005 0.02349999999993588 0  -0.005 0.02299999999993733 0  -0.005590674212597458 0.02376230314954231 0  -0.006181348425194916 0.0235246062991502 0  -0.005 0.02099999999994222 0  -0.005564630812322937 0.0217315610722294 0  -0.005564630812322937 0.02123156107223086 0  -0.006129261624645875 0.0214631221445195 0  -0.005 0.02149999999994076 0  -0.005 0.0219999999999393 0  -0.008999999999999999 0.01999999999994686 0  -0.008409325787402531 0.01926230314955595 0  -0.008999999999999999 0.01949999999994807 0  -0.008999999999999999 0.01899999999994928 0  -0.008409325787402531 0.01976230314955475 0  -0.007818651574805061 0.01952460629916263 0  -0.008999999999999999 0.02499999999992978 0  -0.008409325787402541 0.02573769685032071 0  -0.008409325787402541 0.02523769685032191 0  -0.007818651574805081 0.02547539370071405 0  -0.008999999999999999 0.02549999999992857 0  -0.008999999999999999 0.02599999999992736 0  -0.008999999999999999 0.01599999999995916 0  -0.008409325787402512 0.01526230314956849 0  -0.008999999999999999 0.01549999999996053 0  -0.008999999999999999 0.0149999999999619 0  -0.008409325787402512 0.01576230314956713 0  -0.007818651574805024 0.01552460629917509 0  -0.008999999999999999 0.01799999999995125 0  -0.008435915727826615 0.01725427993967504 0  -0.008999999999999999 0.01749999999995307 0  -0.008999999999999999 0.01699999999995488 0  -0.008435915727826615 0.01775427993967323 0  -0.007871831455653231 0.0175085598793952 0  -0.008999999999999999 0.02699999999992539 0  -0.008434239959724898 0.02774706184850321 0  -0.008434239959724898 0.02724706184850503 0  -0.007868479919449797 0.02749412369708466 0  -0.008999999999999999 0.02749999999992357 0  -0.008999999999999999 0.02799999999992175 0  -0.008999999999999999 0.01399999999996497 0  -0.008437765310767197 0.0132645357198448 0  -0.008999999999999999 0.01349999999996647 0  -0.008999999999999999 0.01299999999996796 0  -0.008437765310767197 0.0137645357198433 0  -0.007875530621534396 0.01352907143972163 0  -0.005 0.002999999999993196 0  -0.005590674212597853 0.003737696850384681 0  -0.005590674212597853 0.003237696850385873 0  -0.006181348425195706 0.00347539370077855 0  -0.005 0.003499999999992004 0  -0.005 0.003999999999990813 0  -0.005 0.004999999999989164 0  -0.005559084057905018 0.005728935712846076 0  -0.005559084057905018 0.005228935712846881 0  -0.006118168115810037 0.005457871425704597 0  -0.005 0.00549999999998836 0  -0.005 0.005999999999987554 0  -0.005 0.05299999999997999 0  -0.005590674212599118 0.05373769685037712 0  -0.005590674212599118 0.05323769685037585 0  -0.006181348425198237 0.05347539370077171 0  -0.005 0.05349999999998126 0  -0.005 0.05399999999998254 0  -0.008999999999999999 0.05199999999997907 0  -0.008409325787400907 0.05126230314958195 0  -0.008999999999999999 0.0514999999999778 0  -0.008999999999999999 0.05099999999997653 0  -0.008409325787400907 0.05176230314958322 0  -0.007818651574801817 0.05152460629918738 0  -0.005 0.03699999999993814 0  -0.005590674212599064 0.03626230314954104 0  -0.005 0.03649999999993686 0  -0.005 0.03599999999993558 0  -0.005590674212599064 0.03676230314954232 0  -0.006181348425198127 0.03652460629914649 0  -0.005 0.03799999999993905 0  -0.005590674212599059 0.03873769685033618 0  -0.005590674212599059 0.0382376968503349 0  -0.006181348425198119 0.03847539370073075 0  -0.005 0.03849999999994033 0  -0.005 0.0389999999999416 0  -0.008999999999999999 0.04499999999995907 0  -0.008409325787400921 0.04426230314956281 0  -0.008999999999999999 0.04449999999995852 0  -0.008999999999999999 0.04399999999995796 0  -0.008409325787400921 0.04476230314956336 0  -0.007818651574801844 0.04452460629916766 0  -0.005 0.05499999999998635 0  -0.005561924071815199 0.05574035198473451 0  -0.005561924071815199 0.05524035198473292 0  -0.006123848143630398 0.05548070396947949 0  -0.005 0.05549999999998795 0  -0.005 0.05599999999998954 0  -0.008999999999999999 0.04999999999997271 0  -0.008437330811979935 0.04925705943891855 0  -0.008999999999999999 0.04949999999997112 0  -0.008999999999999999 0.04899999999996952 0  -0.008437330811979935 0.04975705943892015 0  -0.00787466162395987 0.04951411887786759 0  -0.005 0.03499999999993177 0  -0.005554118008684467 0.03427588870688815 0  -0.005 0.03449999999993018 0  -0.005 0.03399999999992859 0  -0.005554118008684467 0.03477588870688975 0  -0.006108236017368934 0.03455177741384772 0  -0.005 0.03999999999994542 0  -0.005565787062146483 0.04074708348495108 0  -0.005565787062146483 0.0402470834849495 0  -0.006131574124292967 0.04049416696995358 0  -0.005 0.04049999999994701 0  -0.005 0.04099999999994859 0  -0.008999999999999999 0.04299999999995415 0  -0.008434212937853522 0.04225291651494782 0  -0.008999999999999999 0.04249999999995224 0  -0.008999999999999999 0.04199999999995033 0  -0.008434212937853522 0.04275291651494972 0  -0.007868425875707045 0.0425058330299453 0  -0.008249816699198017 0.05835749671693449 0  -0.008080483532295991 0.05789383450280617 0  -0.008624908349599008 0.05817874835846479 0  -0.005 0.05699999999999127 0  -0.005564814814815426 0.05763425925925437 0  -0.005564814814815426 0.05713425925925246 0  -0.006129629629630853 0.05726851851851365 0  -0.005 0.05749999999999318 0  -0.005 0.05799999999999508 0  -0.007812500000000279 0.05881250000000175 0  -0.007487215909092686 0.05955539772727215 0  -0.007906250000003019 0.05940625000000088 0  -0.008000000000005759 0.06 0  -0.007393465909089946 0.05896164772727303 0  -0.006974431818179612 0.0591107954545443 0  -0.008269129548671622 0.01109390078343537 0  -0.008025189774334947 0.0108177837250408 0  -0.008390624999999135 0.01027083333331175 0  -0.008634564774335812 0.01054695039170632 0  -0.008999999999999999 0.009999999999977279 0  -0.008269129548671525 0.007906099216521786 0  -0.00802518977433494 0.008182216274916528 0  -0.008390624999999177 0.008729166666645676 0  -0.008634564774335763 0.008453049608250935 0  -0.008999999999999999 0.008999999999980083 0  -0.008269129548669827 0.04709390078342088 0  -0.008025189774335762 0.04681778372502312 0  -0.008390625000000849 0.04627083333329277 0  -0.008634564774334913 0.04654695039169052 0  -0.008999999999999999 0.04599999999996016 0  -0.008273872863797757 0.03191632356681653 0  -0.008025109529492163 0.03218405924682916 0  -0.008388173097593283 0.03272589746338432 0  -0.007776346195186568 0.03245179492684179 0  -0.008636936431898879 0.03245816178337169 0  -0.008999999999999999 0.03299999999992685 0  -0.008017414784897241 0.03353452586113938 0  -0.007896880490041905 0.03299316039399058 0  -0.00850870739244862 0.03326726293053311 0  -0.007057671392325 0.03137590312127503 0  -0.007417008793755784 0.03191384902405841 0  -0.007160048097594804 0.03223839746338272 0  -0.00680071069616402 0.03170045156059935 0  -0.006543750000003041 0.03202499999992366 0  -0.007883928571428122 0.00949999999997868 0  -0.007832589285713197 0.01002083333331245 0  -0.00844196428571406 0.009749999999977979 0  -0.007832589285713239 0.008979166666644976 0  -0.00844196428571406 0.009249999999979382 0  -0.007040819314031163 0.03285586844587998 0  -0.007408582754608865 0.03265383168636089 0  -0.006792284657017102 0.03244043422290183 0  -0.005872353521460591 0.05810919245179558 0  -0.006000991575545722 0.05768885548515462 0  -0.005436176760730296 0.05805459622589533 0  -0.00786502184884123 0.04771008739533377 0  -0.007823135924421465 0.04712587703097956 0  -0.007452265955932792 0.04769238077179296 0  -0.007865021848844505 0.007289912604609198 0  -0.00782313592442143 0.007874122968960234 0  -0.007452265955936481 0.007307619228155863 0  -0.007865021848844829 0.01171008739534793 0  -0.007823135924421552 0.01112587703099708 0  -0.007452265955936822 0.01169238077180085 0  -0.008184288543895116 0.02249999999993832 0  -0.007988733012405148 0.02298711832054615 0  -0.007383909739089816 0.02298711832054615 0  -0.007793177480915178 0.02347423664115397 0  -0.007579465270579786 0.02249999999993833 0  -0.006974641997264455 0.02249999999993833 0  -0.007988733012405137 0.02201288167933051 0  -0.007383909739089808 0.02201288167933051 0  -0.007793177480915159 0.02152576335872269 0  -0.005819248789178329 0.02649
[...]
<PointData  Vectors="f_23"> 
<DataArray  type="Float64"  Name="f_23"  NumberOfComponents="3" format="ascii">0.0000000000000000e+00 0.0000000000000000e+00 0.0000000000000000e+00  1.0356764572152192e-09 -3.7448895740327163e-03 0.0000000000000000e+00  1.9719182399994127e-09 -5.4504284829630673e-03 0.0000000000000000e+00  1.1954241981729939e-09 -5.6274719857087466e-03 0.0000000000000000e+00  0.0000000000000000e+00 0.0000000000000000e+00 0.0000000000000000e+00  0.0000000000000000e+00 0.0000000000000000e+00 0.0000000000000000e+00  0.0000000000000000e+00 0.0000000000000000e+00 0.0000000000000000e+00  -1.6581953716253712e-09 -3.9202776072815009e-03 0.0000000000000000e+00  0.0000000000000000e+00 0.0000000000000000e+00 0.0000000000000000e+00  0.0000000000000000e+00 0.0000000000000000e+00 0.0000000000000000e+00  -6.6613550473873068e-11 -5.4010360903716473e-03 0.0000000000000000e+00  -2.1599181396337324e-09 -5.6041840815309833e-03 0.0000000000000000e+00  0.0000000000000000e+00 0.0000000000000000e+00 0.0000000000000000e+00  6.0891014667620186e-09 -3.7252279111258924e-03 0.0000000000000000e+00  -1.9516026478692396e-07 -5.4477862870630847e-03 0.0000000000000000e+00  -2.0559733925149922e-07 -5.6174515104622886e-03 0.0000000000000000e+00  0.0000000000000000e+00 0.0000000000000000e+00 0.0000000000000000e+00  0.0000000000000000e+00 0.0000000000000000e+00 0.0000000000000000e+00  -1.6513238900029967e-09 -5.8048036281337324e-03 0.0000000000000000e+00  -3.2695201304765558e-09 -5.8119333378499538e-03 0.0000000000000000e+00  3.8753703372153559e-09 -5.8132811585251193e-03 0.0000000000000000e+00  6.5673726116760148e-09 -5.8128618133791565e-03 0.0000000000000000e+00  -6.1282862489646426e-09 -5.8117702971044989e-03 0.0000000000000000e+00  -5.6818632504994900e-09 -5.7841892183613111e-03 0.0000000000000000e+00  1.4777962688322076e-09 -5.8052083789079745e-03 0.0000000000000000e+00  9.1724038119781209e-10 -5.8120611160693810e-03 0.0000000000000000e+00  -2.3421257498458544e-09 -5.8133084488321491e-03 0.0000000000000000e+00  -1.7945126564553283e-09 -5.8130428738628597e-03 0.0000000000000000e+00  4.6451570891601571e-09 -5.8119455584998364e-03 0.0000000000000000e+00  -6.5515276283649119e-10 -5.7827626157284833e-03 0.0000000000000000e+00  -1.6862562892801566e-09 -5.8052680362178062e-03 0.0000000000000000e+00  -5.5185281177519178e-09 -5.8120200091997627e-03 0.0000000000000000e+00  -3.0508721615464823e-09 -5.8133224022165345e-03 0.0000000000000000e+00  -3.4919468606847585e-09 -5.8128512056971077e-03 0.0000000000000000e+00  -3.3919829800656460e-09 -5.8123003506173956e-03 0.0000000000000000e+00  -7.5724712511657841e-09 -5.7868689714978654e-03 0.0000000000000000e+00  0.0000000000000000e+00 0.0000000000000000e+00 0.0000000000000000e+00  2.3956147064559532e-09 -3.8682987824226888e-03 0.0000000000000000e+00  0.0000000000000000e+00 0.0000000000000000e+00 0.0000000000000000e+00  0.0000000000000000e+00 0.0000000000000000e+00 0.0000000000000000e+00  4.9253145641579957e-09 -5.4559687731017183e-03 0.0000000000000000e+00  2.7514821454138410e-09 -5.6192135662961884e-03 0.0000000000000000e+00  0.0000000000000000e+00 0.0000000000000000e+00 0.0000000000000000e+00  3.4317703609118570e-09 -3.9159781894047450e-03 0.0000000000000000e+00  5.2205165437116975e-09 -5.4548127948168684e-03 0.0000000000000000e+00  6.7564086059412527e-09 -5.6295838230568229e-03 0.0000000000000000e+00  0.0000000000000000e+00 0.0000000000000000e+00 0.0000000000000000e+00  0.0000000000000000e+00 0.0000000000000000e+00 0.0000000000000000e+00  0.0000000000000000e+00 0.0000000000000000e+00 0.0000000000000000e+00  2.1218882790495205e-10 -3.8525331826014153e-03 0.0000000000000000e+00  0.0000000000000000e+00 0.0000000000000000e+00 0.0000000000000000e+00  0.0000000000000000e+00 0.0000000000000000e+00 0.0000000000000000e+00  1.8429922231528697e-09 -5.4554417755924844e-03 0.0000000000000000e+00  5.3207170916606233e-10 -5.6204846411171501e-03 0.0000000000000000e+00  0.0000000000000000e+00 0.0000000000000000e+00 0.0000000000000000e+00  4.0813059253569405e-10 -3.8951667212641177e-03 0.0000000000000000e+00  -2.2678303729249948e-09 -5.4535191275842700e-03 0.0000000000000000e+00  -2.9342660328376405e-09 -5.6231478034044482e-03 0.0000000000000000e+00  0.0000000000000000e+00 0.0000000000000000e+00 0.0000000000000000e+00  0.0000000000000000e+00 0.0000000000000000e+00 0.0000000000000000e+00  0.0000000000000000e+00 0.0000000000000000e+00 0.0000000000000000e+00  4.7421056598235433e-09 -3.8648821253212794e-03 0.0000000000000000e+00  0.0000000000000000e+00 0.0000000000000000e+00 0.0000000000000000e+00  0.0000000000000000e+00 0.0000000000000000e+00 0.0000000000000000e+00  5.3997121463675236e-09 -5.4454732369723837e-03 0.0000000000000000e+00  6.2850637191331997e-09 -5.6118075294195463e-03 0.0000000000000000e+00  0.0000000000000000e+00 0.0000000000000000e+00 0.0000000000000000e+00  3.6344389814832300e-10 -3.8668859676565656e-03 0.0000000000000000e+00  0.0000000000000000e+00 0.0000000000000000e+00 0.0000000000000000e+00  0.0000000000000000e+00 0.0000000000000000e+00 0.0000000000000000e+00  -1.7006488961499281e-09 -5.4475256109399895e-03 0.0000000000000000e+00  -1.0417874322708859e-09 -5.6224413293928278e-03 0.0000000000000000e+00  0.0000000000000000e+00 0.0000000000000000e+00 0.0000000000000000e+00  -2.8579276396365448e-09 -4.0309394236708474e-03 0.0000000000000000e+00  -1.8492244253597197e-09 -5.4131516109955820e-03 0.0000000000000000e+00  -5.5369484906730253e-09 -5.6138819956053415e-03 0.0000000000000000e+00  0.0000000000000000e+00 0.0000000000000000e+00 0.0000000000000000e+00  0.0000000000000000e+00 0.0000000000000000e+00 0.0000000000000000e+00  0.0000000000000000e+00 0.0000000000000000e+00 0.0000000000000000e+00  1.0158589480508214e-09 -3.7783080589330951e-03 0.0000000000000000e+00  0.0000000000000000e+00 0.0000000000000000e+00 0.0000000000000000e+00  0.0000000000000000e+00 0.0000000000000000e+00 0.0000000000000000e+00  4.3131721476455170e-09 -5.4416481754466020e-03 0.0000000000000000e+00  2.9486901930476720e-09 -5.6134039767979605e-03 0.0000000000000000e+00  0.0000000000000000e+00 0.0000000000000000e+00 0.0000000000000000e+00  -4.3509726423486217e-10 -3.8940481400452490e-03 0.0000000000000000e+00  1.5054526115975770e-09 -5.4576227133393265e-03 0.0000000000000000e+00  1.7767004532715827e-10 -5.6238851957244179e-03 0.0000000000000000e+00  0.0000000000000000e+00 0.0000000000000000e+00 0.0000000000000000e+00  0.0000000000000000e+00 0.0000000000000000e+00 0.0000000000000000e+00  0.0000000000000000e+00 0.0000000000000000e+00 0.0000000000000000e+00  -2.3744316060269597e-09 -3.7588263247322557e-03 0.0000000000000000e+00  -3.2283333873137733e-09 -5.4019706707964295e-03 0.0000000000000000e+00  -2.8668920282249800e-09 -5.5992279378822207e-03 0.0000000000000000e+00  0.0000000000000000e+00 0.0000000000000000e+00 0.0000000000000000e+00  0.0000000000000000e+00 0.0000000000000000e+00 0.0000000000000000e+00  0.0000000000000000e+00 0.0000000000000000e+00 0.0000000000000000e+00  5.8637445381986664e-09 -3.8684236616085060e-03 0.0000000000000000e+00  1.4337571070301737e-08 -5.4560708196519413e-03 0.0000000000000000e+00  1.4616032785145658e-08 -5.6197889204859042e-03 0.0000000000000000e+00  0.0000000000000000e+00 0.0000000000000000e+00 0.0000000000000000e+00  0.0000000000000000e+00 0.0000000000000000e+00 0.0000000000000000e+00  0.0000000000000000e+00 0.0000000000000000e+00 0.0000000000000000e+00  8.5155820174243171e-09 -3.8951313303463683e-03 0.0000000000000000e+00  0.0000000000000000e+00 0.0000000000000000e+00 0.0000000000000000e+00  0.0000000000000000e+00 0.0000000000000000e+00 0.0000000000000000e+00  1.8037957756965812e-08 -5.4535403478095440e-03 0.0000000000000000e+00  2.3364873062335574e-08 -5.6232073075398329e-03 0.0000000000000000e+00  0.0000000000000000e+00 0.0000000000000000e+00 0.0000000000000000e+00  2.1387322236061688e-09 -3.8420039143347018e-03 0.0000000000000000e+00  0.0000000000000000e+00 0.0000000000000000e+00 0.0000000000000000e+00  0.0000000000000000e+00 0.0000000000000000e+00 0.0000000000000000e+00  5.1268242189896031e-09 -5.4483135784838613e-03 0.0000000000000000e+00  1.0523630199090512e-09 -5.6138898457327013e-03 0.0000000000000000e+00  0.0000000000000000e+00 0.0000000000000000e+00 0.0000000000000000e+00  8.0413247114010072e-09 -3.8794419639985832e-03 0.0000000000000000e+00  1.2475979715895118e-08 -5.4110453031441024e-03 0.0000000000000000e+00  6.2305933232977710e-09 -5.6043232313268271e-03 0.0000000000000000e+00  0.0000000000000000e+00 0.0000000000000000e+00 0.0000000000000000e+00  0.0000000000000000e+00 0.0000000000000000e+00 0.0000000000000000e+00  0.0000000000000000e+00 0.0000000000000000e+00 0.0000000000000000e+00  -3.2615877896017455e-10 -3.8667129742468035e-03 0.0000000000000000e+00  0.0000000000000000e+00 0.0000000000000000e+00 0.0000000000000000e+00  0.0000000000000000e+00 0.0000000000000000e+00 0.0000000000000000e+00  -8.0629379367069766e-10 -5.4551463160365252e-03 0.0000000000000000e+00  -1.7680644781055826e-09 -5.6154488479960886e-03 0.0000000000000000e+00  0.0000000000000000e+00 0.0000000000000000e+00 0.0000000000000000e+00  1.8696226927962806e-08 -3.7589159259695101e-03 0.0000000000000000e+00  -3.2515813714792901e-08 -5.4418987247277402e-03 0.0000000000000000e+00  -2.3892389570488485e-09 -5.6163260042916812e-03 0.0000000000000000e+00  0.0000000000000000e+00 0.0000000000000000e+00 0.0000000000000000e+00  0.0000000000000000e+00 0.0000000000000000e+00 0.0000000000000000e+00  0.0000000000000000e+00 0.0000000000000000e+00 0.0000000000000000e+00  -2.7866436218478659e-09 -3.8401454962828873e-03 0.0000000000000000e+00  0.0000000000000000e+00 0.0000000000000000e+00 0.0000000000000000e+00  0.0000000000000000e+00 0.0000000000000000e+00 0.0000000000000000e+00  2.9121490368590757e-09 -5.4081463842082268e-03 0.0000000000000000e+00  6.1521027592202762e-09 -5.6058451018454192e-03 0.0000000000000000e+00  0.0000000000000000e+00 0.0000000000000000e+00 0.0000000000000000e+00  2.1527333009184365e-09 -3.6282204669895461e-03 0.0000000000000000e+00  0.0000000000000000e+00 0.0000000000000000e+00 0.0000000000000000e+00  0.0000000000000000e+00 0.0000000000000000e+00 0.0000000000000000e+00  1.4254038706599525e-09 -5.4346278213916058e-03 0.0000000000000000e+00  3.7469462084154847e-09 -5.6074122216225675e-03 0.0000000000000000e+00  0.0000000000000000e+00 0.0000000000000000e+00 0.0000000000000000e+00  2.8855210211641039e-09 -3.9713797496408083e-03 0.0000000000000000e+00  8.7039984908998644e-09 -5.4484918697190058e-03 0.0000000000000000e+00  4.3516288734204079e-09 -5.6302342506778097e-03 0.0000000000000000e+00  0.0000000000000000e+00 0.0000000000000000e+00 0.0000000000000000e+00  0.0000000000000000e+00 0.0000000000000000e+00 0.0000000000000000e+00  0.0000000000000000e+00 0.0000000000000000e+00 0.0000000000000000e+00  -2.2964689098845681e-09 -3.9709630292297619e-03 0.0000000000000000e+00  0.0000000000000000e+00 0.0000000000000000e+00 0.0000000000000000e+00  0.0000000000000000e+00 0.0000000000000000e+00 0.0000000000000000e+00  -9.5598413894990918e-10 -5.4477736920305183e-03 0.0000000000000000e+00  -1.4020955602068553e-09 -5.6275234188892355e-03 0.0000000000000000e+00  1.4016148633810701e-07 -5.4117625052045471e-03 0.0000000000000000e+00  1.7657025098383445e-08 -5.7009385778720480e-03 0.0000000000000000e+00  1.3589429665511056e-07 -3.7819181529099824e-03 0.0000000000000000e+00  0.0000000000000000e+00 0.0000000000000000e+00 0.0000000000000000e+00  2.7859380729557352e-07 -3.6593719263902152e-03 0.0000000000000000e+00  2.5433694421701870e-07 -5.4323129805154543e-03 0.0000000000000000e+00  3.6796078031898138e-07 -5.5938757203231292e-03 0.0000000000000000e+00  0.0000000000000000e+00 0.0000000000000000e+00 0.0000000000000000e+00  0.0000000000000000e+00 0.0000000000000000e+00 0.0000000000000000e+00  1.6433964011623110e-07 -5.7951633724313435e-03 0.0000000000000000e+00  9.0317046712285525e-08 -5.8124122217888688e-03 0.0000000000000000e+00  -2.4002400954105741e-08 -5.7846917516844783e-03 0.0000000000000000e+00  -4.2637083844927981e-08 -5.7857992484515739e-03 0.0000000000000000e+00  1.0710506551074879e-07 -5.8126084942064634e-03 0.0000000000000000e+00  4.2299397233965318e-07 -5.8086080030248658e-03 0.0000000000000000e+00  -7.9984341025021264e-09 -5.3524340803480430e-03 0.0000000000000000e+00  -1.2441413300405588e-08 -5.7218563033916486e-03 0.0000000000000000e+00  -1.1069349644414679e-08 -5.5187462573319723e-03 0.0000000000000000e+00  -5.5187965574767534e-09 -3.4967161238430057e-03 0.0000000000000000e+00  0.0000000000000000e+00 0.0000000000000000e+00 0.0000000000000000e+00  -1.7811183373306137e-09 -5.3431128931685154e-03 0.0000000000000000e+00  -3.9753661475710148e-09 -5.7253670308035206e-03 0.0000000000000000e+00  -9.1144247892127537e-09 -5.4820076746499302e-03 0.0000000000000000e+00  -5.1266070353395536e-09 -3.5487604898710337e-03 0.0000000000000000e+00  0.0000000000000000e+00 0.0000000000000000e+00 0.0000000000000000e+00  -9.5566794611214288e-09 -5.3438028577178619e-03 0.0000000000000000e+00  -1.0379387781816559e-08 -5.7251811342730712e-03 0.0000000000000000e+00  -5.9503092922375887e-09 -5.4843661386934786e-03 0.0000000000000000e+00  -5.2532253492980990e-09 -3.5454256872179983e-03 0.0000000000000000e+00  0.0000000000000000e+00 0.0000000000000000e+00 0.0000000000000000e+00  7.8345045843465882e-10 -5.3815848343305422e-03 0.0000000000000000e+00  1.0594023410406184e-09 -5.7272673639724549e-03 0.0000000000000000e+00  3.4744836497755095e-09 -5.5221444429602255e-03 0.0000000000000000e+00  2.3937926053491713e-09 -5.7867196041581003e-03 0.0000000000000000e+00  4.8465372082754664e-10 -3.5122140861712742e-03 0.0000000000000000e+00  0.0000000000000000e+00 0.0000000000000000e+00 0.0000000000000000e+00  8.0772444327751626e-09 -5.5912387778178432e-03 0.0000000000000000e+00  5.7287782209927248e-09 -5.7486112612748592e-03 0.0000000000000000e+00  4.7129706744127720e-09 -3.4935163049158941e-03 0.0000000000000000e+00  6.3047051837987675e-10 -5.8106125569629425e-03 0.0000000000000000e+00  -1.2119888767988013e-10 -5.8058046341563129e-03 0.0000000000000000e+00  1.7547424084228878e-09 -5.8121170394783645e-03 0.0000000000000000e+00  1.6172633232034457e-09 -5.8134953803033870e-03 0.0000000000000000e+00  4.1878577836506075e-09 -5.8026881006340465e-03 0.0000000000000000e+00  -1.1260344416002559e-08 -5.5111796326715971e-03 0.0000000000000000e+00  -1.3047493479185751e-08 -5.7402591368376620e-03 0.0000000000000000e+00  -1.1084784937276511e-08 -3.4667473943539471e-03 0.0000000000000000e+00  -5.8975122817281843e-09 -5.7716011830708583e-03 0.0000000000000000e+00  -1.7302444623427116e-08 -5.2553661286712915e-03 0.0000000000000000e+00  4.6014957280706232e-09 -5.8099775442483799e-03 0.0000000000000000e+00  2.5189763919652014e-09 -5.8129111033716789e-03 0.0000000000000000e+00  3.5429843308384466e-09 -5.8136211843074484e-03 0.0000000000000000e+00  5.4144704041151050e-07 -5.4905923847381648e-03 0.0000000000000000e+00  6.7442851836523537e-07 -5.6441946656537977e-03 0.0000000000000000e+00  2.6233613865926530e-07 -5.3221529121457046e-03 0.0000000000000000e+00  -5.8885417467617626e-09 -5.7851679303000478e-03 0.0000000000000000e+00  -8.0287551472616227e-09 -5.7794430783570400e-03 0.0000000000000000e+00  8.2437216793327959e-10 -5.8120626806816324e-03 0.0000000000000000e+00  1.1085022190542046e-09 -5.7876667920780962e-03 0.0000000000000000e+00  8.8278561463906668e-10 -5.7794769641186768e-03 0.0000000000000000e+00  2.3602094592739957e-09 -5.8124263237735339e-03 0.0000000000000000e+00  -5.3628586219850175e-09 -5.7853404203245294e-03 0.0000000000000000e+00  -7.0199243209205549e-09 -5.7811902988748574e-03 0.0000000000000000e+00  -4.9969933998616205e-09 -5.8120807647581109e-03 0.0000000000000000e+00  6.2055178809491558e-09 -5.5587606691455170e-03 0.0000000000000000e+00  3.3580980431543244e-09 -5.7798582670838677e-03 0.0000000000000000e+00  4.7357015710651281e-09 -5.7956695447106054e-03 0.0000000000000000e+00  -2.3733551902672774e-10 -5.7985157259132806e-03 0.0000000000000000e+00  7.0887023138313367e-09 -5.7948867017448653e-03 0.0000000000000000e+00  7.9731265766488107e-09 -5.7947216748293704e-03 0.0000000000000000e+00  9.2880014008870890e-09 -5.7798928271749388e-03 0.0000000000000000e+00  9.4757841710730397e-09 -5.7958245128902908e-03 0.0000000000000000e+00  8.4145473291109218e-09 -5.7986180876780924e-03 0.0000000000000000e+00  5.0840081737015539e-09 -5.5678536599907480e-03 0.0000000000000000e+00  3.5216198582368764e-09 -5.7851471240382276e-03 0.0000000000000000e+00  9.6419708245744013e-10 -5.7939912307493138e-03 0.0000000000000000e+00  5.7684083285482810e-10 -5.7827711413615396e-03 0.0000000000000000e+00  3.9420900995749652e-09 -5.7953282891049932e-03 0.0000000000000000e+00  -2.8912616639232803e-10 -5.7973044530374709e-03 0.0000000000000000e+00  -2.9555128279348727e-09 -5.5679445231329805e-03 0.0000000000000000e+00  -6.2987935125657298e-09 -5.7852215012022482e-03 0.0000000000000000e+00  -4.2475375108193785e-09 -5.7941245089095450e-03 0.0000000000000000e+00  -3.5512473111417180e-09 -5.7831618365149816e-03 0.0000000000000000e+00  -3.1771896037368183e-09 -5.7953851699794933e-03 0.0000000000000000e+00  -2.8041478754051380e-09 -5.7976572376241967e-03 0.0000000000000000e+00  9.3344835017403745e-09 -5.7850429807560586e-03 0.0000000000000000e+00  4.8260126696183009e-09 -5.7940519290438563e-03 0.0000000000000000e+00  7.1943704303191452e-09 -5.7825229090929138e-03 0.0000000000000000e+00  -1.1015787169815852e-09 -5.7850747798977717e-03 0.0000000000000000e+00  -1.5899865110618116e-09 -5.7940751772768582e-03 0.0000000000000000e+00  2.6082442553430144e-10 -5.7825528734064954e-03 0.0000000000000000e+00  4.9728474662873520e-09 -5.5717099941252728e-03 0.0000000000000000e+00  6.4631543700261834e-09 -5.7855770870608994e-03 0.0000000000000000e+00  6.3327498812548937e-09 -5.7943073427389738e-03 0.0000000000000000e+00  7.0350908706500923e-09 -5.7831602353179924e-03 0.0000000000000000e+00  6.0772328074523913e-09 -5.7956737092168271e-03 0.0000000000000000e+00  5.6102487998951385e-09 -5.7975355894762893e-03 0.0000000000000000e+00  5.5542379937078863e-09 -5.7854478259637089e-03 0.0000000000000000e+00  5.1959388548590444e-09 -5.7939874389655952e-03 0.0000000000000000e+00  4.1775103092347251e-09 -5.7816686650960618e-03 0.0000000000000000e+00  -4.4683523207960317e-09 -5.5713597242655431e-03 0.0000000000000000e+00  -3.8710446999605904e-09 -5.7846657574078409e-03 0.0000000000000000e+00  -3.3684550202294801e-09 -5.7938237087915550e-03 0.0000000000000000e+00  -2.4927787909309388e-09 -5.7739364840008215e-03 0.0000000000000000e+00  -5.0768399752473704e-09 -5.7956262776763471e-03 0.0000000000000000e+00  -3.4394393090493402e-09 -5.7973215846952465e-03 0.0000000000000000e+00  -6.9622001360398166e-09 -5.7854877381170542e-03 0.0000000000000000e+00  -5.4902536150904896e-09 -5.7939850359093282e-03 0.0000000000000000e+00  -6.4224556776553197e-09 -5.7825351384761716e-03 0.0000000000000000e+00  1.1969033518496416e-08 -5.5677989672462238e-03 0.0000000000000000e+00  1.8494134498357323e-08 -5.7850218257413273e-03 0.0000000000000000e+00  1.9874774061850470e-08 -5.7939797585263722e-03 0.0000000000000000e+00  2.2221266752597214e-08 -5.7824244914697065e-03 0.0000000000000000e+00  1.6613924192534038e-08 -5.7953228982179084e-03 0.0000000000000000e+00  1.6383551030380718e-08 -5.7972746229467721e-03 0.0000000000000000e+00  9.2400602495737610e-09 -5.5890533181508807e-03 0.0000000000000000e+00  7.5437365042271708e-09 -5.7608997494129786e-03 0.0000000000000000e+00  4.8029532828149556e-09 -5.7973436933621142e-03 0.0000000000000000e+00  2.7061390667334180e-09 -5.7861718974137194e-03 0.0000000000000000e+00  8.1171375605940173e-09 -5.7952595982807753e-03 0.0000000000000000e+00  4.6621654048034995e-09 -5.7983442186354999e-03 0.0000000000000000e+00  -9.2555124589956963e-09 -5.5678368607871963e-03 0.0000000000000000e+00  -1.1863023084940741e-08 -5.7850420008983480e-03 0.0000000000000000e+00  -7.9142705897811505e-09 -5.7939614595704453e-03 0.0000000000000000e+00  -8.