<?xml version="1.0"?>
<VTKFile type="UnstructuredGrid"  version="0.1"  >
<UnstructuredGrid>
<Piece  NumberOfPoints="2690" NumberOfCells="4864">
<Points>
<DataArray  type="Float64"  NumberOfComponents="3"  format="ascii">-5.066163289861616 22.01448198483233 0  -5.657568064887434 21.27711640673742 0  -5.064857474574588 21.51566714261907 0  -5.063315950591091 21.01455395221337 0  -5.658875350538174 21.7773820711351 0  -6.251587018441342 21.53794631185472 0  -9 21.99999999996945 0  -8.406535656612007 21.26552628221169 0  -9 21.49999999997139 0  -9 20.99999999997333 0  -8.406767724507839 21.76550941497447 0  -7.813317371361287 21.53098077017964 0  -9 32.9999999999446 0  -8.411614755324772 32.26547901507031 0  -9 32.49999999994358 0  -9 31.99999999994255 0  -8.411846602171996 32.76548346951233 0  -7.82347378636306 32.53093238370076 0  -5.099860934118164 33.01565269906327 0  -5.604831991353902 32.31184665916128 0  -5.098498235807985 32.51773300954981 0  -5.096857770594589 32.0151460991064 0  -5.606184536728914 32.81224817727431 0  -6.112506587086385 32.60659818250128 0  -5.165167690200438 54.0149173247253 0  -5.745251003353457 54.75172377340323 0  -5.743960727369748 54.25234737013518 0  -6.322557909634229 54.48758693982945 0  -5.166682059028974 54.51602599365502 0  -5.168023063947802 55.0150717907126 0  -9 54.99999999998974 0  -8.491914426827471 54.2986681655114 0  -9 54.49999999998872 0  -9 53.99999999998769 0  -8.492118915214247 54.79860576261942 0  -7.984075733747763 54.59723170934977 0  -9 39.99999999995897 0  -8.415552739222166 40.74043122220729 0  -8.415320823417437 40.24043450698878 0  -7.830863215971709 40.48082550281385 0  -9 40.49999999996 0  -9 40.99999999996102 0  -5.124512643849626 41.01384368773114 0  -5.681228386158462 40.28272357829209 0  -5.123161553471635 40.51609233113881 0  -5.121648455624883 40.01558972714087 0  -5.682537645975819 40.78248892971983 0  -6.240604932480589 40.54859979980695 0  -9 55.99999999999179 0  -8.446735221396263 56.74603996999817 0  -8.446533152220782 56.24600052129087 0  -7.893277844769456 56.49200037383178 0  -9 56.49999999999282 0  -9 56.99999999999384 0  -5.171402594074886 56.01424400496759 0  -5.726767213771002 56.75762214363013 0  -5.725495384805126 56.25756115845336 0  -6.279346911802878 56.49907853692505 0  -5.173010983535544 56.51650563659729 0  -5.174347827333099 57.01511770249463 0  -7.488604942704785 43.00820160390105 0  -6.668672999891725 43.1209830059515 0  -7.258364886338867 43.34693062263135 0  -7.028244726600023 43.68567085421825 0  -6.8987910058928 42.78216411739486 0  -6.308769261281675 42.55613135292018 0  -6.653391273300441 49.01548975672321 0  -7.469518413899616 48.90183837316943 0  -6.882411910813846 48.67665161896841 0  -7.111569226531572 48.33776659801649 0  -7.240373324115557 49.24064592776416 0  -7.827134139454929 49.46591296253219 0  -6.647762002949664 46.01454781524919 0  -7.465849153593103 45.90122909202396 0  -6.877353600054318 45.67553875391403 0  -7.10707390791737 45.33660475248023 0  -7.236137320100505 46.2401520264647 0  -7.824302888207507 46.46570178168879 0  -6.575118805540574 7.0150571830384 0  -7.418476750085037 6.901631696788223 0  -6.811823590094418 6.676210947483574 0  -7.048657697858976 6.337368156778849 0  -7.18165122500381 7.240472040987449 0  -7.787975372540434 7.465876138809139 0  -7.472971319665855 30.00810905263131 0  -6.644551267004507 30.12077664831266 0  -7.240351218832367 30.34661541734209 0  -7.007854470182838 30.68507126829873 0  -6.877050763712156 29.78222182906277 0  -6.280916844637137 29.55641556564199 0  -6.569775589190692 4.014334326176913 0  -7.415269531739945 4.11752348033575 0  -6.808090660799721 4.350395455374651 0  -7.0462975780633 4.686409470025405 0  -7.177069907559916 3.781480358873606 0  -7.784543660841492 3.548720288557278 0  -6.580593029348067 10.0151858084392 0  -7.422298469571545 10.11809281672942 0  -6.817868288253831 10.35105717078832 0  -7.055030326661613 10.68692924600797 0  -7.185126444126605 9.782235717263896 0  -7.78987337690142 9.549267574998661 0  -6.586081840783897 13.01532102032781 0  -7.425618164277374 12.90184412759541 0  -6.82170627912588 12.67647976507615 0  -7.057459221616046 12.33764322308064 0  -7.189869097497047 13.24070269039817 0  -7.793453188324096 13.46604176189926 0  -6.59160288142392 16.0155554569312 0  -7.429225992839216 15.90191311363704 0  -6.826685061493055 15.67673151064791 0  -7.061899051446226 15.33786971018929 0  -7.194022939373014 16.24071892442535 0  -7.796228753407513 16.46597005154976 0  -6.597263533986979 19.01393190013675 0  -7.433183830266427 19.11711234408716 0  -6.832953074491016 19.34955251845048 0  -7.068510097439084 19.68526117916294 0  -7.197615497692004 18.7813583821131 0  -7.79819176751559 18.54874469344419 0  -6.612196347125721 27.01341153112846 0  -7.442923754929565 27.11678664606064 0  -6.8464034417735 27.34932644692248 0  -7.080491658730881 27.68526246892108 0  -7.208832500257965 26.78076788587732 0  -7.805677033647795 26.54824629000636 0  -8.27960471995935 19.09800524679411 0  -8.038950992981018 18.82335200708616 0  -8.398967036964736 18.27441292957641 0  -8.639645938876134 18.54906630643835 0  -9 17.99999999998495 0  -8.284084842585548 27.0978413225385 0  -8.044931902294749 26.82304565303054 0  -8.402713111666811 26.27410971406507 0  -8.641890285935364 26.54891790456379 0  -9 25.99999999995395 0  -8.277802264748169 15.91071418271968 0  -8.036963639283149 16.18835037027315 0  -8.398240687118495 16.73295228116035 0  -8.639054147061115 16.45533329330617 0  -9 16.99999999998883 0  -5.805367249549327 30.11162087062266 0  -6.043087001609909 29.83400144078902 0  -5.684453554269497 29.28886722088282 0  -5.446717518833044 29.56716968634519 0  -5.087425975580232 29.01446909306324 0  -8.276141610292278 12.9107080027024 0  -8.034746382973745 13.18837184293001 0  -8.396849952491817 13.73302720794811 0  -8.63822145361625 13.45536103449651 0  -9 13.99999999999401 0  -8.274599984567619 10.09846471053729 0  -8.032286588322012 9.823866731878097 0  -8.394812568786048 9.274631426439617 0  -8.637150955418226 9.549229478149323 0  -9 8.99999999999857 0  -8.27137904991384 4.098195205929136 0  -8.028006468014693 3.823469804294412 0  -8.392172003655828 3.274339133391214 0  -8.635557793770875 3.549067562469973 0  -9 2.999999999998668 0  -8.272859938947143 6.910601708076871 0  -8.03036688568791 7.18823605056941 0  -8.394110488403092 7.732942360240354 0  -8.636579254160823 7.455309685600208 0  -9 7.999999999999485 0  -8.294640168396839 45.9104161746041 0  -8.059420127340807 46.18804200233806 0  -8.412276817348308 46.73287748562223 0  -8.647472023690137 46.4552531666525 0  -9 46.99999999997333 0  -8.296328148059427 48.91067155847394 0  -8.061677906877851 49.18830052891853 0  -8.413696194177245 49.73292236244061 0  -8.648320777210561 49.45531456777279 0  -9 49.99999999997949 0  -5.838107093268865 43.11179855590294 0  -6.073382013501458 42.83396061820352 0  -5.718417843456309 42.2883821334145 0  -5.483132092948573 42.56698357717296 0  -5.127478879811353 42.01387672006221 0  -5.785277462623317 23.93421135305678 0  -6.030161654186169 24.20038084263443 0  -5.675149409121251 24.74392472267206 0  -6.274936034691361 24.4665988029057 0  -5.430348462187138 24.47844162842104 0  -5.075449477293168 25.01438499049628 0  -8.30271523929604 52.08773178426695 0  -8.063626004224034 51.82147363135779 0  -8.412082420300388 51.27766865902866 0  -7.824431161747121 51.55525656202429 0  -8.65120127347285 51.54392595724091 0  -9 50.99999999998153 0  -5.82085373296441 38.10137058938261 0  -6.061785326217636 37.83197273251852 0  -5.70771780144777 37.29166519719418 0  -6.302824497296203 37.5626222083387 0  -5.466767367907751 37.5618896281693 0  -5.111993778532932 37.01323162805807 0  -5.812867532191228 34.93407222964824 0  -6.05566536563057 35.20013771761375 0  -5.703728140760339 35.74349997380628 0  -6.298353691320706 35.46624927265982 0  -5.461003973409803 35.47822429329971 0  -5.109203678664107 36.01371849053143 0  -7.92672104596806 50.50690736656529 0  -7.87555300453094 51.03110037133269 0  -8.463470086273595 50.75341540878259 0  -6.196263538653186 36.5142977069322 0  -6.249560162153479 37.03837006370794 0  -5.65419459285311 36.76632756131787 0  -6.24728826828534 35.99017780158869 0  -5.652872861932935 36.26616405563878 0  -6.034376380926015 25.27568638985981 0  -6.154625167362425 24.8711733246419 0  -5.555015024872669 25.14768195234915 0  -8.046403786152704 25.75101902451202 0  -7.926003152975207 26.14963214701401 0  -8.523248276081011 25.87551191697199 0  -6.995970349839951 34.38646525904164 0  -6.64701074732314 34.92644085844177 0  -6.897705664003699 35.2495640193105 0  -7.246684071672794 34.70970873514302 0  -7.497267960299366 35.03292637759194 0  -7.135662590314777 52.63463562129843 0  -7.479891231929196 52.0950239282267 0  -7.232662619546113 51.77212557317409 0  -6.888449403345625 52.31178207396458 0  -6.641102207500293 51.98897003066464 0  -7.002712110501928 38.63456895466299 0  -6.65291951834529 38.09867924728317 0  -6.901903059252903 37.77272368699199 0  -7.251680577754898 38.30874146433577 0  -7.500777866903793 37.98288236583414 0  -6.978631904054738 23.38654251838917 0  -6.626634931719223 23.92662225449885 0  -6.879487228540853 24.24981130074002 0  -7.231504774499941 23.70983330420488 0  -7.48424907518171 24.03308345336319 0  -7.898539615420083 17.50678700300256 0  -7.848343358968163 18.02778755601698 0  -8.449377711573476 17.75335410570171 0  -7.847404087798123 16.98638644359592 0  -8.449162053680098 17.25341533922496 0  -7.890957397920403 8.506943289038276 0  -7.840395911104857 9.028106818249322 0  -8.445582094446573 8.753473175299215 0  -7.933393876471019 2.421629730646191 0  -7.858927114473822 2.985156710116827 0  -8.466794457387333 2.710835169913624 0  -7.839486724877221 7.986413511273207 0  -8.445373542636748 8.253466763575034 0  -7.876948518898375 49.9864187591691 0  -8.463250126849468 50.25347638552152 0  -6.120644483135366 41.60713884033664 0  -6.21474252888892 42.08169849568793 0  -5
[...]
<PointData  Vectors="f_27"> 
<DataArray  type="Float64"  Name="f_27"  NumberOfComponents="3" format="ascii">0.0000000000000000e+00 0.0000000000000000e+00 0.0000000000000000e+00  7.3341551132050905e-06 -1.1544051253117204e-02 0.0000000000000000e+00  0.0000000000000000e+00 0.0000000000000000e+00 0.0000000000000000e+00  0.0000000000000000e+00 0.0000000000000000e+00 0.0000000000000000e+00  -8.3008405690584549e-06 -1.6180700213593094e-02 0.0000000000000000e+00  1.2671271476800300e-05 -1.6645267293908365e-02 0.0000000000000000e+00  0.0000000000000000e+00 0.0000000000000000e+00 0.0000000000000000e+00  3.3941712359325152e-05 -1.1752998318724006e-02 0.0000000000000000e+00  0.0000000000000000e+00 0.0000000000000000e+00 0.0000000000000000e+00  0.0000000000000000e+00 0.0000000000000000e+00 0.0000000000000000e+00  7.6232289909043479e-05 -1.6136819178886316e-02 0.0000000000000000e+00  5.6416244851715641e-05 -1.6712240092405819e-02 0.0000000000000000e+00  0.0000000000000000e+00 0.0000000000000000e+00 0.0000000000000000e+00  3.3896819442147020e-05 -1.1457921059427657e-02 0.0000000000000000e+00  0.0000000000000000e+00 0.0000000000000000e+00 0.0000000000000000e+00  0.0000000000000000e+00 0.0000000000000000e+00 0.0000000000000000e+00  7.6171767460125317e-05 -1.6039458829031131e-02 0.0000000000000000e+00  5.8970037057277873e-05 -1.6616307277798219e-02 0.0000000000000000e+00  0.0000000000000000e+00 0.0000000000000000e+00 0.0000000000000000e+00  1.3228317983562868e-05 -1.2040911927949616e-02 0.0000000000000000e+00  0.0000000000000000e+00 0.0000000000000000e+00 0.0000000000000000e+00  0.0000000000000000e+00 0.0000000000000000e+00 0.0000000000000000e+00  1.5400476887394085e-05 -1.6115719446409944e-02 0.0000000000000000e+00  2.8046086668134409e-05 -1.6666293792317342e-02 0.0000000000000000e+00  0.0000000000000000e+00 0.0000000000000000e+00 0.0000000000000000e+00  2.5205217634863046e-05 -1.1846376002842966e-02 0.0000000000000000e+00  6.3501068296697074e-05 -1.5882353365751424e-02 0.0000000000000000e+00  4.8928898377220444e-05 -1.6435139446795879e-02 0.0000000000000000e+00  0.0000000000000000e+00 0.0000000000000000e+00 0.0000000000000000e+00  0.0000000000000000e+00 0.0000000000000000e+00 0.0000000000000000e+00  0.0000000000000000e+00 0.0000000000000000e+00 0.0000000000000000e+00  3.0583318197275158e-05 -1.1826038890266342e-02 0.0000000000000000e+00  0.0000000000000000e+00 0.0000000000000000e+00 0.0000000000000000e+00  0.0000000000000000e+00 0.0000000000000000e+00 0.0000000000000000e+00  4.6470107953047069e-05 -1.6042466166158200e-02 0.0000000000000000e+00  4.5852933085312548e-05 -1.6483763175209967e-02 0.0000000000000000e+00  0.0000000000000000e+00 0.0000000000000000e+00 0.0000000000000000e+00  2.7461995335057335e-05 -1.1374285260861950e-02 0.0000000000000000e+00  1.3314783348586879e-05 -1.5986273423545066e-02 0.0000000000000000e+00  3.0246196575947219e-05 -1.6552089955895754e-02 0.0000000000000000e+00  0.0000000000000000e+00 0.0000000000000000e+00 0.0000000000000000e+00  0.0000000000000000e+00 0.0000000000000000e+00 0.0000000000000000e+00  0.0000000000000000e+00 0.0000000000000000e+00 0.0000000000000000e+00  2.6281931233653122e-05 -1.1579116066646342e-02 0.0000000000000000e+00  0.0000000000000000e+00 0.0000000000000000e+00 0.0000000000000000e+00  0.0000000000000000e+00 0.0000000000000000e+00 0.0000000000000000e+00  1.5437109189882299e-05 -1.6174309709123404e-02 0.0000000000000000e+00  2.9192154872703269e-05 -1.6589458628451965e-02 0.0000000000000000e+00  0.0000000000000000e+00 0.0000000000000000e+00 0.0000000000000000e+00  4.5786821654987652e-05 -1.2275077339058053e-02 0.0000000000000000e+00  2.7749318732097838e-05 -1.5937029740421774e-02 0.0000000000000000e+00  4.7783853655869334e-05 -1.6457755347478210e-02 0.0000000000000000e+00  0.0000000000000000e+00 0.0000000000000000e+00 0.0000000000000000e+00  0.0000000000000000e+00 0.0000000000000000e+00 0.0000000000000000e+00  0.0000000000000000e+00 0.0000000000000000e+00 0.0000000000000000e+00  1.6653575396138923e-05 -1.2282819218313739e-02 0.0000000000000000e+00  4.7848886007072160e-05 -1.5936407341034364e-02 0.0000000000000000e+00  3.4558043279957191e-05 -1.6450730895458971e-02 0.0000000000000000e+00  0.0000000000000000e+00 0.0000000000000000e+00 0.0000000000000000e+00  0.0000000000000000e+00 0.0000000000000000e+00 0.0000000000000000e+00  6.3966943412259057e-05 -1.7014629988402457e-02 0.0000000000000000e+00  7.1125506283569587e-05 -1.7028587164516933e-02 0.0000000000000000e+00  6.2875895953955229e-05 -1.7028568550033551e-02 0.0000000000000000e+00  5.9625837486673529e-05 -1.7028269163365573e-02 0.0000000000000000e+00  6.6883791987731964e-05 -1.7027466666837760e-02 0.0000000000000000e+00  6.0885126760786611e-05 -1.6969622489732043e-02 0.0000000000000000e+00  8.2505285542648781e-05 -1.6952643709088226e-02 0.0000000000000000e+00  7.6686619594272214e-05 -1.6948103602146287e-02 0.0000000000000000e+00  8.3275661052994901e-05 -1.6970852704370022e-02 0.0000000000000000e+00  8.1324673697607191e-05 -1.6964473862067845e-02 0.0000000000000000e+00  7.5517953588623459e-05 -1.6963767727935918e-02 0.0000000000000000e+00  6.4373714085075564e-05 -1.6900233193823701e-02 0.0000000000000000e+00  6.8813105822201106e-05 -1.6984547290372080e-02 0.0000000000000000e+00  6.0691174389914834e-05 -1.6992767801731944e-02 0.0000000000000000e+00  6.2245420023373867e-05 -1.7000554679450584e-02 0.0000000000000000e+00  5.5521069512376662e-05 -1.7006374373951121e-02 0.0000000000000000e+00  6.5234133497335710e-05 -1.6989723292195519e-02 0.0000000000000000e+00  5.7033156396211426e-05 -1.6920891740889697e-02 0.0000000000000000e+00  6.7703340686455012e-05 -1.7281735166797329e-02 0.0000000000000000e+00  6.0548279725730403e-05 -1.7294188529246930e-02 0.0000000000000000e+00  6.4303334597243166e-05 -1.7299999010336763e-02 0.0000000000000000e+00  6.4742117331868936e-05 -1.7303922611893927e-02 0.0000000000000000e+00  6.1700246146034757e-05 -1.7294044234297642e-02 0.0000000000000000e+00  5.2250502924626955e-05 -1.7232995427250136e-02 0.0000000000000000e+00  5.7996312921477872e-05 -1.7108316405198810e-02 0.0000000000000000e+00  7.1694392933178760e-05 -1.7100507585067003e-02 0.0000000000000000e+00  5.8874256757575019e-05 -1.7126347451531215e-02 0.0000000000000000e+00  5.7349172283775214e-05 -1.7113194811897093e-02 0.0000000000000000e+00  6.5362037793981217e-05 -1.7117016234257435e-02 0.0000000000000000e+00  6.4069998187939368e-05 -1.7050557496985731e-02 0.0000000000000000e+00  7.5955644089403164e-05 -1.7317033339972782e-02 0.0000000000000000e+00  6.9739482170584307e-05 -1.7315161794772480e-02 0.0000000000000000e+00  7.3135781443238687e-05 -1.7324538099787394e-02 0.0000000000000000e+00  6.9878881144224057e-05 -1.7320397140989170e-02 0.0000000000000000e+00  7.0965969334991786e-05 -1.7319447521547737e-02 0.0000000000000000e+00  7.1595686770434055e-05 -1.7258422296602783e-02 0.0000000000000000e+00  7.5913412745795715e-05 -1.7267650415374501e-02 0.0000000000000000e+00  7.0899982376365557e-05 -1.7270278396320105e-02 0.0000000000000000e+00  7.1281939543866831e-05 -1.7276131028171469e-02 0.0000000000000000e+00  6.8822172338799467e-05 -1.7272927058163797e-02 0.0000000000000000e+00  7.5753739355222558e-05 -1.7275112917180341e-02 0.0000000000000000e+00  8.0032606750538466e-05 -1.7207734570381480e-02 0.0000000000000000e+00  6.6985468082975073e-05 -1.7235580227497209e-02 0.0000000000000000e+00  6.1932070355220160e-05 -1.7248722013628391e-02 0.0000000000000000e+00  6.4465354879725121e-05 -1.7254163194145637e-02 0.0000000000000000e+00  6.5601056176241052e-05 -1.7258243683154824e-02 0.0000000000000000e+00  6.1998268485234504e-05 -1.7246629286142300e-02 0.0000000000000000e+00  5.4078233883099865e-05 -1.7181192375105028e-02 0.0000000000000000e+00  7.8611495756904912e-05 -1.7215695386713140e-02 0.0000000000000000e+00  7.2834269946126285e-05 -1.7210463266581905e-02 0.0000000000000000e+00  7.9232237906594317e-05 -1.7232993384661246e-02 0.0000000000000000e+00  7.7213261111983998e-05 -1.7226002181467099e-02 0.0000000000000000e+00  7.1529410191452838e-05 -1.7227052048672930e-02 0.0000000000000000e+00  6.0639793223762045e-05 -1.7163585395650251e-02 0.0000000000000000e+00  9.0687222589219579e-05 -1.7185203545842510e-02 0.0000000000000000e+00  7.2313678571089954e-05 -1.7188634292722167e-02 0.0000000000000000e+00  8.3139802552799667e-05 -1.7207771498094611e-02 0.0000000000000000e+00  6.9682248740654364e-05 -1.7194361965243043e-02 0.0000000000000000e+00  8.1621056045971856e-05 -1.7206536433799685e-02 0.0000000000000000e+00  8.1646887917961200e-05 -1.7140867815003052e-02 0.0000000000000000e+00  8.4613029367004391e-05 -1.7130308538051881e-02 0.0000000000000000e+00  7.2060784770803827e-05 -1.7144417534118186e-02 0.0000000000000000e+00  8.0505234807395670e-05 -1.7148114643218953e-02 0.0000000000000000e+00  7.0387537143814795e-05 -1.7139767434998524e-02 0.0000000000000000e+00  7.3728438152852470e-05 -1.7146019059167742e-02 0.0000000000000000e+00  7.1092494849242058e-05 -1.7087444144894413e-02 0.0000000000000000e+00  5.2765785974903055e-05 -1.6115437358589967e-02 0.0000000000000000e+00  7.2064205322743650e-05 -1.7036910020208140e-02 0.0000000000000000e+00  8.4001409606737997e-05 -1.6309684175324048e-02 0.0000000000000000e+00  5.2921116354579153e-05 -1.1581449583925553e-02 0.0000000000000000e+00  0.0000000000000000e+00 0.0000000000000000e+00 0.0000000000000000e+00  5.5168973680994594e-05 -1.6062623248461239e-02 0.0000000000000000e+00  6.4338292960973751e-05 -1.6974057341441307e-02 0.0000000000000000e+00  6.8816022872992196e-05 -1.6252825271596081e-02 0.0000000000000000e+00  4.5771557746377613e-05 -1.1509913456420265e-02 0.0000000000000000e+00  0.0000000000000000e+00 0.0000000000000000e+00 0.0000000000000000e+00  5.8285521332159105e-05 -1.6151249467823332e-02 0.0000000000000000e+00  5.2293319632099518e-05 -1.7048588981627207e-02 0.0000000000000000e+00  3.8411505826335728e-05 -1.6424049874296957e-02 0.0000000000000000e+00  2.1176384503793742e-05 -1.1480233411363689e-02 0.0000000000000000e+00  0.0000000000000000e+00 0.0000000000000000e+00 0.0000000000000000e+00  7.3829974424333215e-05 -1.6025593274733043e-02 0.0000000000000000e+00  9.9399930688100088e-05 -1.6935263036618780e-02 0.0000000000000000e+00  4.1651884499250167e-05 -1.6262484622288732e-02 0.0000000000000000e+00  3.1268529434126523e-05 -1.1527970052145099e-02 0.0000000000000000e+00  0.0000000000000000e+00 0.0000000000000000e+00 0.0000000000000000e+00  5.7380587850578060e-05 -1.6163063185913672e-02 0.0000000000000000e+00  5.2209762828491185e-05 -1.7069944745581236e-02 0.0000000000000000e+00  4.0511447376690861e-05 -1.6349048425498752e-02 0.0000000000000000e+00  3.0714811965091494e-05 -1.1607468634563335e-02 0.0000000000000000e+00  0.0000000000000000e+00 0.0000000000000000e+00 0.0000000000000000e+00  6.1659977163584952e-05 -1.6181623547088492e-02 0.0000000000000000e+00  7.4680641783191298e-05 -1.7096100310840877e-02 0.0000000000000000e+00  8.4822196079600807e-05 -1.6366727446993114e-02 0.0000000000000000e+00  5.6083906046935569e-05 -1.1641849037714667e-02 0.0000000000000000e+00  0.0000000000000000e+00 0.0000000000000000e+00 0.0000000000000000e+00  6.1589910989505006e-05 -1.6245844173406177e-02 0.0000000000000000e+00  7.0559898523174524e-05 -1.7134703477101738e-02 0.0000000000000000e+00  7.7856909256868834e-05 -1.6514310334606253e-02 0.0000000000000000e+00  5.8919257076719446e-05 -1.1573732281899042e-02 0.0000000000000000e+00  0.0000000000000000e+00 0.0000000000000000e+00 0.0000000000000000e+00  4.9437493409691456e-05 -1.6228026296803807e-02 0.0000000000000000e+00  4.4500025044556961e-05 -1.7113813633643536e-02 0.0000000000000000e+00  3.3015669113430849e-05 -1.6484750663890217e-02 0.0000000000000000e+00  1.7381335523125114e-05 -1.1546994977413835e-02 0.0000000000000000e+00  0.0000000000000000e+00 0.0000000000000000e+00 0.0000000000000000e+00  5.8964443378187267e-05 -1.5892309265304799e-02 0.0000000000000000e+00  5.4298532006236225e-05 -1.6805039252522882e-02 0.0000000000000000e+00  4.3657350600791216e-05 -1.6096140229195678e-02 0.0000000000000000e+00  3.1865458273182546e-05 -1.1341622150474207e-02 0.0000000000000000e+00  0.0000000000000000e+00 0.0000000000000000e+00 0.0000000000000000e+00  6.1121062762211172e-05 -1.5881205305045561e-02 0.0000000000000000e+00  5.5998363318654175e-05 -1.6782561128325733e-02 0.0000000000000000e+00  4.2579189871656721e-05 -1.6168466965371643e-02 0.0000000000000000e+00  2.4153773853619823e-05 -1.1216465142768013e-02 0.0000000000000000e+00  0.0000000000000000e+00 0.0000000000000000e+00 0.0000000000000000e+00  7.0778486943301442e-05 -1.5940181230767028e-02 0.0000000000000000e+00  9.6096852611198829e-05 -1.6851303049967355e-02 0.0000000000000000e+00  3.1345181814300261e-05 -1.6178284436114857e-02 0.0000000000000000e+00  2.9171391092944419e-05 -1.1439561341305004e-02 0.0000000000000000e+00  0.0000000000000000e+00 0.0000000000000000e+00 0.0000000000000000e+00  7.6644903832974508e-05 -1.6147029749565542e-02 0.0000000000000000e+00  1.0603209437311980e-04 -1.7008980189992803e-02 0.0000000000000000e+00  6.6639395161497054e-05 -1.6224513006762319e-02 0.0000000000000000e+00  7.6433656525011823e-05 -1.7102202019140648e-02 0.0000000000000000e+00  4.7566989620446583e-05 -1.1509215730290501e-02 0.0000000000000000e+00  0.0000000000000000e+00 0.0000000000000000e+00 0.0000000000000000e+00  6.0152741855669847e-05 -1.5914910734916975e-02 0.0000000000000000e+00  7.5616050798301521e-05 -1.6776916907735664e-02 0.0000000000000000e+00  8.4603387440296361e-05 -1.6052222932146486e-02 0.0000000000000000e+00  8.0090088102716705e-05 -1.6868865625733368e-02 0.0000000000000000e+00  5.2939112910180049e-05 -1.1350934883408518e-02 0.0000000000000000e+00  0.0000000000000000e+00 0.0000000000000000e+00 0.0000000000000000e+00  7.3742238693248638e-05 -1.6040066741585535e-02 0.0000000000000000e+00  8.9471745495084512e-05 -1.6884930142218063e-02 0.0000000000000000e+00  2.2252122213077999e-05 -1.6208028036734708e-02 0.0000000000000000e+00  5.6695616762143804e-05 -1.6984111714848947e-02 0.0000000000000000e+00  2.9519935811974339e-05 -1.1522930368354339e-02 0.0000000000000000e+00  0.0000000000000000e+00 0.0000000000000000e+00 0.0000000000000000e+00  9.0280782494169066e-05 -1.6081009056213728e-02 0.0000000000000000e+00  1.2107681513315088e-04 -1.6914395288964296e-02 0.0000000000000000e+00  7.4969251805947614e-05 -1.6251915066997972e-02 0.0000000000000000e+00  8.4400412445151293e-05 -1.7019886966632602e-02 0.0000000000000000e+00  6.1360753295102195e-05 -1.1302233232485286e-02 0.0000000000000000e+00  0.0000000000000000e+00 0.0000000000000000e+00 0.0000000000000000e+00  6.8995397932437868e-05 -1.6235348507587729e-02 0.0000000000000000e+00  8.1754546082605842e-05 -1.6874187431282921e-02 0.0000000000000000e+00  8.8988350150512584e-05 -1.5637808906156545e-02 0.0000000000000000e+00  1.2767912992426825e-05 -1.6352789175280436e-02 0.0000000000000000e+00  3.3894092785885086e-05 -1.6988512604711774e-02 0.0000000000000000e+00  -4.1335075749712190e-05 -1.5760065109741452e-02 0.0000000000000000e+00  6.4732262673402306e-05 -1.6932686388745993e-02 0.0000000000000000e+00  -1.7437673316258037e-05 -1.0900617368020211e-02 0.0000000000000000e+00  3.0680203679076186e-05 -1.6619116255770765e-02 0.0000000000000000e+00  6.0445166500674069e-05 -1.7094206813209823e-02 0.0000000000000000e+00  9.8457207675325687e-06 -1.5945294962946905e-02 0.0000000000000000e+00  6.3202230903555278e-05 -1.6548313159635737e-02 0.0000000000000000e+00  6.6747754219110590e-05 -1.7075733439267507e-02 0.0000000000000000e+00  7.1055226322777878e-05 -1.5931090533195694e-02 0.0000000000000000e+00  7.4237250491905227e-05 -1.7089300740235121e-02 0.0000000000000000e+00  8.7410524595384553e-05 -1.7068571146185645e-02 0.0000000000000000e+00  7.6484911062797451e-05 -1.7088780169102862e-02 0.0000000000000000e+00  7.5830090426958670e-05 -1.7091359243141365e-02 0.0000000000000000e+00  6.9398468411355522e-05 -1.7073411166313741e-02 0.0000000000000000e+00  7.5148166095390798e-05 -1.6918828508545126e-02 0.0000000000000000e+00  6.8657789850751837e-05 -1.6901943488785438e-02 0.0000000000000000e+00  7.7956695660390794e-05 -1.6936737139634696e-02 0.0000000000000000e+00  8.0231696494028614e-05 -1.6935094535005614e-02 0.0000000000000000e+00  7.9865538931308077e-05 -1.6910703593695956e-02 0.0000000000000000e+00  6.4651165808359638e-05 -1.7055202224283895e-02 0.0000000000000000e+00  7.7731418973841127e-05 -1.7034016534651239e-02 0.0000000000000000e+00  6.2739051368589392e-05 -1.7055995525745445e-02 0.0000000000000000e+00  6.4228007008472804e-05 -1.7061094116997574e-02 0.0000000000000000e+00  5.6717002875230787e-05 -1.7047829412424383e-02 0.0000000000000000e+00  6.6834283682646605e-05 -1.7173976687889326e-02 0.0000000000000000e+00  7.8270570143137625e-05 -1.7157772872354662e-02 0.0000000000000000e+00  6.8202553253977172e-05 -1.7173251786900649e-02 0.0000000000000000e+00  6.8176769059620192e-05 -1.7174844663487877e-02 0.0000000000000000e+00  6.0225280899395419e-05 -1.7148785978137578e-02 0.0000000000000000e+00  6.7279620080282901e-05 -1.6500188392909450e-02 0.0000000000000000e+00  8.1603523788959306e-05 -1.7141005882275906e-02 0.0000000000000000e+00  8.9513486421432384e-05 -1.5906174584228744e-02 0.0000000000000000e+00  5.4357128028462887e-05 -1.7081964297925151e-02 0.0000000000000000e+00  3.5030747142838275e-05 -1.1022236354941487e-02 0.0000000000000000e+00  6.4291182617234253e-05 -1.6565421718104011e-02 0.0000000000000000e+00  7.9390333148583587e-05 -1.7203705862370269e-02 0.0000000000000000e+00  8.9002919290600565e-05 -1.5966638112752882e-02 0.0000000000000000e+00  6.0998222733000867e-05 -1.6720316217365323e-02 0.0000000000000000e+00  6.9045986306276195e-05 -1.7187451360057018e-02 0.0000000000000000e+00  4.1999606337067207e-05 -1.1217376873795020e-02 0.0000000000000000e+00  4.8727668333480548e-05 -1.7146915632678755e-02 0.0000000000000000e+00  3.3283830162463884e-05 -1.1077645694026708e-02 0.0000000000000000e+00  5.7569210954547840e-05 -1.6815956536085350e-02 0.0000000000000000e+00  3.6921377471267460e-05 -1.0791556249885266e-02 0.0000000000000000e+00  2.3930327122914961e-06 -1.6412104437124625e-02 0.0000000000000000e+00  4.1413146456886317e-05 -1.6972326674858852e-02 0.0000000000000000e+00  -3.1280427609369150e-05 -1.5751504758436900e-02 0.0000000000000000e+00  5.8325256245607146e-05 -1.7167579889557569e-02 0.0000000000000000e+00  6.4997503856627239e-05 -1.7176836253308028e-02 0.0000000000000000e+00  6.0662451786540053e-05 -1.7172705788216464e-02 0.0000000000000000e+00  7.8340977784832185e-05 -1.6945947579823935e-02 0.0000000000000000e+00  8.0051950061412825e-05 -1.6949726066026911e-02 0.0000000000000000e+00  7.7445435803620962e-05 -1.6944018913814481e-02 0.0000000000000000e+00  5.3493703841031733e-05 -1.7062643673186779e-02 0.0000000000000000e+00  5.2650390926655202e-05 -1.7061909943800604e-02 0.0000000000000000e+00  5.7688057504238026e-05 -1.7064474962289987e-02 0.0000000000000000e+00  6.6335366251656533e-05 -1.7085720580898058e-02 0.0000000000000000e+00  7.1635963490054342e-05 -1.7088894533823326e-02 0.0000000000000000e+00  7.0210378055921374e-05 -1.7089119906299192e-02 0.0000000000000000e+00  1.2702434632121608e-05 -1.6530490981754489e-02 0.0000000000000000e+00  4.7034999746861140e-05 -1.7048606051520702e-02 0.0000000000000000e+00  -2.6608287050353549e-05 -1.5881126019719922e-02 0.0000000000000000e+00  6.5873040409325460e-05 -1.6966667061382668e-02 0.0000000000000000e+00  7.7502259423078117e-05 -1.6952544549720960e-02 0.0000000000000000e+00  6.6350233087255104e-05 -1.7031939443885358e-02 0.0000000000000000e+00  7.9147879010554821e-05 -1.6516693046165289e-02 0.0000000000000000e+00  7.1009287349304952e-05 -1.6867046071451248e-02 0.0000000000000000e+00  7.9546935498393364e-05 -1.6947967649376339e-02 0.0000000000000000e+00  6.0366519658462594e-05 -1.6934777400929853e-02 0.0000000000000000e+00  5.9835088153956125e-05 -1.6908986272700034e-02 0.0000000000000000e+00  5.8733858258020481e-05 -1.6995674699562965e-02 0.000