<?xml version="1.0"?>
<VTKFile type="UnstructuredGrid"  version="0.1"  >
<UnstructuredGrid>
<Piece  NumberOfPoints="2530" NumberOfCells="4544">
<Points>
<DataArray  type="Float64"  NumberOfComponents="3"  format="ascii">-0.005 0.02899999999991747 0  -0.005567606561449265 0.02972952735170602 0  -0.005567606561449265 0.02922952735170672 0  -0.006135213122898529 0.02945905470349596 0  -0.005 0.02949999999991678 0  -0.005 0.02999999999991609 0  -0.008999999999999999 0.02999999999991609 0  -0.008477881325601233 0.02929081058473642 0  -0.008999999999999999 0.02949999999991678 0  -0.008999999999999999 0.02899999999991747 0  -0.008477881325601233 0.02979081058473573 0  -0.007955762651202469 0.02958162116955536 0  -0.008999999999999999 0.05699999999999127 0  -0.008455575182696982 0.05771508614433647 0  -0.008455575182696982 0.05721508614433456 0  -0.007911150365393967 0.05743017228867785 0  -0.008999999999999999 0.05749999999999318 0  -0.008999999999999999 0.05799999999999508 0  -0.006562500000003323 0.04699999999996404 0  -0.007410380031513026 0.04710817040743875 0  -0.006801005031513838 0.04733733707410809 0  -0.007039510063024354 0.04767467414825214 0  -0.007171875000002511 0.0467708333332947 0  -0.007781250000001699 0.04654166666662536 0  -0.006562499999996975 0.007999999999982715 0  -0.007410380031513406 0.007891829592506899 0  -0.006801005031512716 0.007662662925842622 0  -0.007039510063028456 0.007325325851702528 0  -0.007171874999997664 0.008229166666646992 0  -0.007781249999998355 0.008458333333311269 0  -0.006562499999996577 0.01099999999997411 0  -0.007410380031513544 0.01110817040744999 0  -0.006801005031512696 0.01133733707411394 0  -0.007039510063028815 0.01167467414825377 0  -0.007171874999997425 0.01077083333331016 0  -0.007781249999998272 0.01054166666664622 0  -0.005 0.02399999999993442 0  -0.005590674212597458 0.02326230314954376 0  -0.005 0.02349999999993588 0  -0.005 0.02299999999993733 0  -0.005590674212597458 0.02376230314954231 0  -0.006181348425194916 0.0235246062991502 0  -0.005 0.02099999999994222 0  -0.005564630812322937 0.0217315610722294 0  -0.005564630812322937 0.02123156107223086 0  -0.006129261624645875 0.0214631221445195 0  -0.005 0.02149999999994076 0  -0.005 0.0219999999999393 0  -0.008999999999999999 0.01999999999994686 0  -0.008409325787402531 0.01926230314955595 0  -0.008999999999999999 0.01949999999994807 0  -0.008999999999999999 0.01899999999994928 0  -0.008409325787402531 0.01976230314955475 0  -0.007818651574805061 0.01952460629916263 0  -0.008999999999999999 0.02499999999992978 0  -0.008409325787402541 0.02573769685032071 0  -0.008409325787402541 0.02523769685032191 0  -0.007818651574805081 0.02547539370071405 0  -0.008999999999999999 0.02549999999992857 0  -0.008999999999999999 0.02599999999992736 0  -0.008999999999999999 0.01599999999995916 0  -0.008409325787402512 0.01526230314956849 0  -0.008999999999999999 0.01549999999996053 0  -0.008999999999999999 0.0149999999999619 0  -0.008409325787402512 0.01576230314956713 0  -0.007818651574805024 0.01552460629917509 0  -0.008999999999999999 0.01799999999995125 0  -0.008435915727826615 0.01725427993967504 0  -0.008999999999999999 0.01749999999995307 0  -0.008999999999999999 0.01699999999995488 0  -0.008435915727826615 0.01775427993967323 0  -0.007871831455653231 0.0175085598793952 0  -0.008999999999999999 0.02699999999992539 0  -0.008434239959724898 0.02774706184850321 0  -0.008434239959724898 0.02724706184850503 0  -0.007868479919449797 0.02749412369708466 0  -0.008999999999999999 0.02749999999992357 0  -0.008999999999999999 0.02799999999992175 0  -0.008999999999999999 0.01399999999996497 0  -0.008437765310767197 0.0132645357198448 0  -0.008999999999999999 0.01349999999996647 0  -0.008999999999999999 0.01299999999996796 0  -0.008437765310767197 0.0137645357198433 0  -0.007875530621534396 0.01352907143972163 0  -0.005 0.002999999999993196 0  -0.005590674212597853 0.003737696850384681 0  -0.005590674212597853 0.003237696850385873 0  -0.006181348425195706 0.00347539370077855 0  -0.005 0.003499999999992004 0  -0.005 0.003999999999990813 0  -0.005 0.004999999999989164 0  -0.005559084057905018 0.005728935712846076 0  -0.005559084057905018 0.005228935712846881 0  -0.006118168115810037 0.005457871425704597 0  -0.005 0.00549999999998836 0  -0.005 0.005999999999987554 0  -0.005 0.05299999999997999 0  -0.005590674212599118 0.05373769685037712 0  -0.005590674212599118 0.05323769685037585 0  -0.006181348425198237 0.05347539370077171 0  -0.005 0.05349999999998126 0  -0.005 0.05399999999998254 0  -0.008999999999999999 0.05199999999997907 0  -0.008409325787400907 0.05126230314958195 0  -0.008999999999999999 0.0514999999999778 0  -0.008999999999999999 0.05099999999997653 0  -0.008409325787400907 0.05176230314958322 0  -0.007818651574801817 0.05152460629918738 0  -0.005 0.03699999999993814 0  -0.005590674212599064 0.03626230314954104 0  -0.005 0.03649999999993686 0  -0.005 0.03599999999993558 0  -0.005590674212599064 0.03676230314954232 0  -0.006181348425198127 0.03652460629914649 0  -0.005 0.03799999999993905 0  -0.005590674212599059 0.03873769685033618 0  -0.005590674212599059 0.0382376968503349 0  -0.006181348425198119 0.03847539370073075 0  -0.005 0.03849999999994033 0  -0.005 0.0389999999999416 0  -0.008999999999999999 0.04499999999995907 0  -0.008409325787400921 0.04426230314956281 0  -0.008999999999999999 0.04449999999995852 0  -0.008999999999999999 0.04399999999995796 0  -0.008409325787400921 0.04476230314956336 0  -0.007818651574801844 0.04452460629916766 0  -0.005 0.05499999999998635 0  -0.005561924071815199 0.05574035198473451 0  -0.005561924071815199 0.05524035198473292 0  -0.006123848143630398 0.05548070396947949 0  -0.005 0.05549999999998795 0  -0.005 0.05599999999998954 0  -0.008999999999999999 0.04999999999997271 0  -0.008437330811979935 0.04925705943891855 0  -0.008999999999999999 0.04949999999997112 0  -0.008999999999999999 0.04899999999996952 0  -0.008437330811979935 0.04975705943892015 0  -0.00787466162395987 0.04951411887786759 0  -0.005 0.03499999999993177 0  -0.005554118008684467 0.03427588870688815 0  -0.005 0.03449999999993018 0  -0.005 0.03399999999992859 0  -0.005554118008684467 0.03477588870688975 0  -0.006108236017368934 0.03455177741384772 0  -0.005 0.03999999999994542 0  -0.005565787062146483 0.04074708348495108 0  -0.005565787062146483 0.0402470834849495 0  -0.006131574124292967 0.04049416696995358 0  -0.005 0.04049999999994701 0  -0.005 0.04099999999994859 0  -0.008999999999999999 0.04299999999995415 0  -0.008434212937853522 0.04225291651494782 0  -0.008999999999999999 0.04249999999995224 0  -0.008999999999999999 0.04199999999995033 0  -0.008434212937853522 0.04275291651494972 0  -0.007868425875707045 0.0425058330299453 0  -0.008249816699198017 0.05835749671693449 0  -0.008080483532295991 0.05789383450280617 0  -0.008624908349599008 0.05817874835846479 0  -0.005 0.05699999999999127 0  -0.005564814814815426 0.05763425925925437 0  -0.005564814814815426 0.05713425925925246 0  -0.006129629629630853 0.05726851851851365 0  -0.005 0.05749999999999318 0  -0.005 0.05799999999999508 0  -0.007812500000000279 0.05881250000000175 0  -0.007487215909092686 0.05955539772727215 0  -0.007906250000003019 0.05940625000000088 0  -0.008000000000005759 0.06 0  -0.007393465909089946 0.05896164772727303 0  -0.006974431818179612 0.0591107954545443 0  -0.008269129548671622 0.01109390078343537 0  -0.008025189774334947 0.0108177837250408 0  -0.008390624999999135 0.01027083333331175 0  -0.008634564774335812 0.01054695039170632 0  -0.008999999999999999 0.009999999999977279 0  -0.008269129548671525 0.007906099216521786 0  -0.00802518977433494 0.008182216274916528 0  -0.008390624999999177 0.008729166666645676 0  -0.008634564774335763 0.008453049608250935 0  -0.008999999999999999 0.008999999999980083 0  -0.008269129548669827 0.04709390078342088 0  -0.008025189774335762 0.04681778372502312 0  -0.008390625000000849 0.04627083333329277 0  -0.008634564774334913 0.04654695039169052 0  -0.008999999999999999 0.04599999999996016 0  -0.008273872863797757 0.03191632356681653 0  -0.008025109529492163 0.03218405924682916 0  -0.008388173097593283 0.03272589746338432 0  -0.007776346195186568 0.03245179492684179 0  -0.008636936431898879 0.03245816178337169 0  -0.008999999999999999 0.03299999999992685 0  -0.008017414784897241 0.03353452586113938 0  -0.007896880490041905 0.03299316039399058 0  -0.00850870739244862 0.03326726293053311 0  -0.007057671392325 0.03137590312127503 0  -0.007417008793755784 0.03191384902405841 0  -0.007160048097594804 0.03223839746338272 0  -0.00680071069616402 0.03170045156059935 0  -0.006543750000003041 0.03202499999992366 0  -0.007883928571428122 0.00949999999997868 0  -0.007832589285713197 0.01002083333331245 0  -0.00844196428571406 0.009749999999977979 0  -0.007832589285713239 0.008979166666644976 0  -0.00844196428571406 0.009249999999979382 0  -0.007040819314031163 0.03285586844587998 0  -0.007408582754608865 0.03265383168636089 0  -0.006792284657017102 0.03244043422290183 0  -0.005872353521460591 0.05810919245179558 0  -0.006000991575545722 0.05768885548515462 0  -0.005436176760730296 0.05805459622589533 0  -0.00786502184884123 0.04771008739533377 0  -0.007823135924421465 0.04712587703097956 0  -0.007452265955932792 0.04769238077179296 0  -0.007865021848844505 0.007289912604609198 0  -0.00782313592442143 0.007874122968960234 0  -0.007452265955936481 0.007307619228155863 0  -0.007865021848844829 0.01171008739534793 0  -0.007823135924421552 0.01112587703099708 0  -0.007452265955936822 0.01169238077180085 0  -0.008184288543895116 0.02249999999993832 0  -0.007988733012405148 0.02298711832054615 0  -0.007383909739089816 0.02298711832054615 0  -0.007793177480915178 0.02347423664115397 0  -0.007579465270579786 0.02249999999993833 0  -0.006974641997264455 0.02249999999993833 0  -0.007988733012405137 0.02201288167933051 0  -0.007383909739089808 0.02201288167933051 0  -0.007793177480915159 0.02152576335872269 0  -0.005819248789178329 0.02649
[...]
<PointData  Vectors="f_23"> 
<DataArray  type="Float64"  Name="f_23"  NumberOfComponents="3" format="ascii">0.0000000000000000e+00 0.0000000000000000e+00 0.0000000000000000e+00  5.3993100837187143e-10 -1.9498368315015516e-03 0.0000000000000000e+00  1.0262950139229570e-09 -2.8378806374980115e-03 0.0000000000000000e+00  6.2208243703634214e-10 -2.9300234156042541e-03 0.0000000000000000e+00  0.0000000000000000e+00 0.0000000000000000e+00 0.0000000000000000e+00  0.0000000000000000e+00 0.0000000000000000e+00 0.0000000000000000e+00  0.0000000000000000e+00 0.0000000000000000e+00 0.0000000000000000e+00  -8.6424480647710914e-10 -2.0411623614380861e-03 0.0000000000000000e+00  0.0000000000000000e+00 0.0000000000000000e+00 0.0000000000000000e+00  0.0000000000000000e+00 0.0000000000000000e+00 0.0000000000000000e+00  -3.4718902172066179e-11 -2.8121670500750907e-03 0.0000000000000000e+00  -1.1249779126919902e-09 -2.9179029881197891e-03 0.0000000000000000e+00  0.0000000000000000e+00 0.0000000000000000e+00 0.0000000000000000e+00  3.1690707059613570e-09 -1.9396014351500633e-03 0.0000000000000000e+00  -1.0161753562973371e-07 -2.8365069784035126e-03 0.0000000000000000e+00  -1.0705196112640397e-07 -2.9248084999792118e-03 0.0000000000000000e+00  0.0000000000000000e+00 0.0000000000000000e+00 0.0000000000000000e+00  0.0000000000000000e+00 0.0000000000000000e+00 0.0000000000000000e+00  -8.6015423239808345e-10 -3.0223395145950837e-03 0.0000000000000000e+00  -1.7027210369100273e-09 -3.0260511114820498e-03 0.0000000000000000e+00  2.0175692823666686e-09 -3.0267488827047154e-03 0.0000000000000000e+00  3.4192985702252926e-09 -3.0265293515114489e-03 0.0000000000000000e+00  -3.1913801990936084e-09 -3.0259618902673834e-03 0.0000000000000000e+00  -2.9589818047017784e-09 -3.0116190160239106e-03 0.0000000000000000e+00  7.6956284277655251e-10 -3.0225502615635158e-03 0.0000000000000000e+00  4.7756953309765771e-10 -3.0261176426578953e-03 0.0000000000000000e+00  -1.2193301983102777e-09 -3.0267630922370787e-03 0.0000000000000000e+00  -9.3425501142505698e-10 -3.0266236261513027e-03 0.0000000000000000e+00  2.4185711831499788e-09 -3.0260531459955129e-03 0.0000000000000000e+00  -3.4143517268289296e-10 -3.0108762076383124e-03 0.0000000000000000e+00  -8.7813763233137197e-10 -3.0225813235061753e-03 0.0000000000000000e+00  -2.8736735267038373e-09 -3.0260962396392510e-03 0.0000000000000000e+00  -1.5887611766073174e-09 -3.0267703574510096e-03 0.0000000000000000e+00  -1.8184687848944895e-09 -3.0265238282973128e-03 0.0000000000000000e+00  -1.7662420883505422e-09 -3.0262378796531994e-03 0.0000000000000000e+00  -3.9428420399892098e-09 -3.0130143160740160e-03 0.0000000000000000e+00  0.0000000000000000e+00 0.0000000000000000e+00 0.0000000000000000e+00  1.2480449184524077e-09 -2.0140917297857947e-03 0.0000000000000000e+00  0.0000000000000000e+00 0.0000000000000000e+00 0.0000000000000000e+00  0.0000000000000000e+00 0.0000000000000000e+00 0.0000000000000000e+00  2.5638920730837813e-09 -2.8407633525960306e-03 0.0000000000000000e+00  1.4320693776590494e-09 -2.9257209909733851e-03 0.0000000000000000e+00  0.0000000000000000e+00 0.0000000000000000e+00 0.0000000000000000e+00  1.7871082356077266e-09 -2.0389199035774522e-03 0.0000000000000000e+00  2.7178126266106577e-09 -2.8401637359071175e-03 0.0000000000000000e+00  3.5172716750396980e-09 -2.9311233334336296e-03 0.0000000000000000e+00  0.0000000000000000e+00 0.0000000000000000e+00 0.0000000000000000e+00  0.0000000000000000e+00 0.0000000000000000e+00 0.0000000000000000e+00  0.0000000000000000e+00 0.0000000000000000e+00 0.0000000000000000e+00  1.0985793131038291e-10 -2.0058828609248302e-03 0.0000000000000000e+00  0.0000000000000000e+00 0.0000000000000000e+00 0.0000000000000000e+00  0.0000000000000000e+00 0.0000000000000000e+00 0.0000000000000000e+00  9.6030885743930572e-10 -2.8404889544171642e-03 0.0000000000000000e+00  2.7759143154219407e-10 -2.9263828167355082e-03 0.0000000000000000e+00  0.0000000000000000e+00 0.0000000000000000e+00 0.0000000000000000e+00  2.1239448353803212e-10 -2.0280814341991807e-03 0.0000000000000000e+00  -1.1801792308306852e-09 -2.8394878360455855e-03 0.0000000000000000e+00  -1.5270032236304933e-09 -2.9277694695489112e-03 0.0000000000000000e+00  0.0000000000000000e+00 0.0000000000000000e+00 0.0000000000000000e+00  0.0000000000000000e+00 0.0000000000000000e+00 0.0000000000000000e+00  0.0000000000000000e+00 0.0000000000000000e+00 0.0000000000000000e+00  2.4682896415128906e-09 -2.0123127361362774e-03 0.0000000000000000e+00  0.0000000000000000e+00 0.0000000000000000e+00 0.0000000000000000e+00  0.0000000000000000e+00 0.0000000000000000e+00 0.0000000000000000e+00  2.8119163132535981e-09 -2.8352985112047500e-03 0.0000000000000000e+00  3.2726114276133415e-09 -2.9218647982807541e-03 0.0000000000000000e+00  0.0000000000000000e+00 0.0000000000000000e+00 0.0000000000000000e+00  1.8841058053624524e-10 -2.0133584598167036e-03 0.0000000000000000e+00  0.0000000000000000e+00 0.0000000000000000e+00 0.0000000000000000e+00  0.0000000000000000e+00 0.0000000000000000e+00 0.0000000000000000e+00  -8.8507883730718384e-10 -2.8363695035114518e-03 0.0000000000000000e+00  -5.4232921163490038e-10 -2.9274044310227810e-03 0.0000000000000000e+00  0.0000000000000000e+00 0.0000000000000000e+00 0.0000000000000000e+00  -1.4882833079846565e-09 -2.0987780745719419e-03 0.0000000000000000e+00  -9.6299516147418147e-10 -2.8184713918860960e-03 0.0000000000000000e+00  -2.8826439484733893e-09 -2.9229475494417915e-03 0.0000000000000000e+00  0.0000000000000000e+00 0.0000000000000000e+00 0.0000000000000000e+00  0.0000000000000000e+00 0.0000000000000000e+00 0.0000000000000000e+00  0.0000000000000000e+00 0.0000000000000000e+00 0.0000000000000000e+00  5.2813211751459362e-10 -1.9672376817484261e-03 0.0000000000000000e+00  0.0000000000000000e+00 0.0000000000000000e+00 0.0000000000000000e+00  0.0000000000000000e+00 0.0000000000000000e+00 0.0000000000000000e+00  2.2460818346536175e-09 -2.8333093918087712e-03 0.0000000000000000e+00  1.5354930541051629e-09 -2.9226990430312795e-03 0.0000000000000000e+00  0.0000000000000000e+00 0.0000000000000000e+00 0.0000000000000000e+00  -2.2526012420963280e-10 -2.0274990094855147e-03 0.0000000000000000e+00  7.8554597320579903e-10 -2.8416245069315294e-03 0.0000000000000000e+00  9.3998348788999495e-11 -2.9281534157712904e-03 0.0000000000000000e+00  0.0000000000000000e+00 0.0000000000000000e+00 0.0000000000000000e+00  0.0000000000000000e+00 0.0000000000000000e+00 0.0000000000000000e+00  0.0000000000000000e+00 0.0000000000000000e+00 0.0000000000000000e+00  -1.2353868320016308e-09 -1.9570942112111856e-03 0.0000000000000000e+00  -1.6802600147219345e-09 -2.8126502753905631e-03 0.0000000000000000e+00  -1.4923260919886835e-09 -2.9153181704287307e-03 0.0000000000000000e+00  0.0000000000000000e+00 0.0000000000000000e+00 0.0000000000000000e+00  0.0000000000000000e+00 0.0000000000000000e+00 0.0000000000000000e+00  0.0000000000000000e+00 0.0000000000000000e+00 0.0000000000000000e+00  3.0538690649383397e-09 -2.0141567978595892e-03 0.0000000000000000e+00  7.4646638974712788e-09 -2.8408164578485290e-03 0.0000000000000000e+00  7.6098364478685358e-09 -2.9260205585368063e-03 0.0000000000000000e+00  0.0000000000000000e+00 0.0000000000000000e+00 0.0000000000000000e+00  0.0000000000000000e+00 0.0000000000000000e+00 0.0000000000000000e+00  0.0000000000000000e+00 0.0000000000000000e+00 0.0000000000000000e+00  4.4337545105137804e-09 -2.0280629614859791e-03 0.0000000000000000e+00  0.0000000000000000e+00 0.0000000000000000e+00 0.0000000000000000e+00  0.0000000000000000e+00 0.0000000000000000e+00 0.0000000000000000e+00  9.3926979523266546e-09 -2.8394989156632776e-03 0.0000000000000000e+00  1.2166427887015162e-08 -2.9278004609986775e-03 0.0000000000000000e+00  0.0000000000000000e+00 0.0000000000000000e+00 0.0000000000000000e+00  1.1142569976159711e-09 -2.0004004573949690e-03 0.0000000000000000e+00  0.0000000000000000e+00 0.0000000000000000e+00 0.0000000000000000e+00  0.0000000000000000e+00 0.0000000000000000e+00 0.0000000000000000e+00  2.6688372734320709e-09 -2.8367774269452599e-03 0.0000000000000000e+00  5.4767256965059995e-10 -2.9229490233353378e-03 0.0000000000000000e+00  0.0000000000000000e+00 0.0000000000000000e+00 0.0000000000000000e+00  4.1875407460666321e-09 -2.0198938311788510e-03 0.0000000000000000e+00  6.4957801965835672e-09 -2.8173724667324030e-03 0.0000000000000000e+00  3.2441033487529651e-09 -2.9179678506818028e-03 0.0000000000000000e+00  0.0000000000000000e+00 0.0000000000000000e+00 0.0000000000000000e+00  0.0000000000000000e+00 0.0000000000000000e+00 0.0000000000000000e+00  0.0000000000000000e+00 0.0000000000000000e+00 0.0000000000000000e+00  -1.7051862716409253e-10 -2.0132660265542984e-03 0.0000000000000000e+00  0.0000000000000000e+00 0.0000000000000000e+00 0.0000000000000000e+00  0.0000000000000000e+00 0.0000000000000000e+00 0.0000000000000000e+00  -4.1927203418449665e-10 -2.8403351095530622e-03 0.0000000000000000e+00  -9.2016599295476903e-10 -2.9237607681662577e-03 0.0000000000000000e+00  0.0000000000000000e+00 0.0000000000000000e+00 0.0000000000000000e+00  9.7361961399855997e-09 -1.9571406135175098e-03 0.0000000000000000e+00  -1.6930223581763336e-08 -2.8334398539944356e-03 0.0000000000000000e+00  -1.2434669837336199e-09 -2.9242205181822241e-03 0.0000000000000000e+00  0.0000000000000000e+00 0.0000000000000000e+00 0.0000000000000000e+00  0.0000000000000000e+00 0.0000000000000000e+00 0.0000000000000000e+00  0.0000000000000000e+00 0.0000000000000000e+00 0.0000000000000000e+00  -1.4516708926388776e-09 -1.9994353010236660e-03 0.0000000000000000e+00  0.0000000000000000e+00 0.0000000000000000e+00 0.0000000000000000e+00  0.0000000000000000e+00 0.0000000000000000e+00 0.0000000000000000e+00  1.5163264819924793e-09 -2.8158655713341539e-03 0.0000000000000000e+00  3.2033253025892632e-09 -2.9187632231031887e-03 0.0000000000000000e+00  0.0000000000000000e+00 0.0000000000000000e+00 0.0000000000000000e+00  1.1216351803473531e-09 -1.8890904683665972e-03 0.0000000000000000e+00  0.0000000000000000e+00 0.0000000000000000e+00 0.0000000000000000e+00  0.0000000000000000e+00 0.0000000000000000e+00 0.0000000000000000e+00  7.4185876871630302e-10 -2.8296547479045348e-03 0.0000000000000000e+00  1.9506204734887197e-09 -2.9195801368170271e-03 0.0000000000000000e+00  0.0000000000000000e+00 0.0000000000000000e+00 0.0000000000000000e+00  1.5027212783029284e-09 -2.0677664146194416e-03 0.0000000000000000e+00  4.5315206345655889e-09 -2.8368724409143587e-03 0.0000000000000000e+00  2.2651209724267739e-09 -2.9314618762324939e-03 0.0000000000000000e+00  0.0000000000000000e+00 0.0000000000000000e+00 0.0000000000000000e+00  0.0000000000000000e+00 0.0000000000000000e+00 0.0000000000000000e+00  0.0000000000000000e+00 0.0000000000000000e+00 0.0000000000000000e+00  -1.1960426425543764e-09 -2.0675493833792269e-03 0.0000000000000000e+00  0.0000000000000000e+00 0.0000000000000000e+00 0.0000000000000000e+00  0.0000000000000000e+00 0.0000000000000000e+00 0.0000000000000000e+00  -4.9732287745581237e-10 -2.8364985220549720e-03 0.0000000000000000e+00  -7.2940547576173519e-10 -2.9300503990398576e-03 0.0000000000000000e+00  7.2978060308980969e-08 -2.8177327083476231e-03 0.0000000000000000e+00  9.1932208454587967e-09 -2.9682892498141184e-03 0.0000000000000000e+00  7.0755457038781196e-08 -1.9691352578287656e-03 0.0000000000000000e+00  0.0000000000000000e+00 0.0000000000000000e+00 0.0000000000000000e+00  1.4505945310278983e-07 -1.9053095532341813e-03 0.0000000000000000e+00  1.3242977960189690e-07 -2.8284484675436122e-03 0.0000000000000000e+00  1.9159123531888855e-07 -2.9125307393407115e-03 0.0000000000000000e+00  0.0000000000000000e+00 0.0000000000000000e+00 0.0000000000000000e+00  0.0000000000000000e+00 0.0000000000000000e+00 0.0000000000000000e+00  8.5570744687413139e-08 -3.0173346131383682e-03 0.0000000000000000e+00  4.7027192908363463e-08 -3.0263026080416576e-03 0.0000000000000000e+00  -1.2494353549407818e-08 -3.0118872503978747e-03 0.0000000000000000e+00  -2.2198182403093457e-08 -3.0124694836299974e-03 0.0000000000000000e+00  5.5768988912308056e-08 -3.0264022288968582e-03 0.0000000000000000e+00  2.2024270802892347e-07 -3.0243144408455109e-03 0.0000000000000000e+00  -4.1648828096010650e-09 -2.7868429583102327e-03 0.0000000000000000e+00  -6.4770405974609728e-09 -2.9791771067067155e-03 0.0000000000000000e+00  -5.7637366001331206e-09 -2.8734488418284709e-03 0.0000000000000000e+00  -2.8747264561574896e-09 -1.8206366549675937e-03 0.0000000000000000e+00  0.0000000000000000e+00 0.0000000000000000e+00 0.0000000000000000e+00  -9.2729698143640780e-10 -2.7819895776573646e-03 0.0000000000000000e+00  -2.0688431652852834e-09 -2.9810050812773894e-03 0.0000000000000000e+00  -4.7461913835622145e-09 -2.8543196849202123e-03 0.0000000000000000e+00  -2.6698859325906296e-09 -1.8477351810396254e-03 0.0000000000000000e+00  0.0000000000000000e+00 0.0000000000000000e+00 0.0000000000000000e+00  -4.9760137498315492e-09 -2.7823488349829452e-03 0.0000000000000000e+00  -5.4034748298698820e-09 -2.9809082876481713e-03 0.0000000000000000e+00  -3.0987805105927228e-09 -2.8555477243958588e-03 0.0000000000000000e+00  -2.7358315816478030e-09 -1.8459988556062249e-03 0.0000000000000000e+00  0.0000000000000000e+00 0.0000000000000000e+00 0.0000000000000000e+00  4.0779418087718322e-10 -2.8020216114855918e-03 0.0000000000000000e+00  5.5267274509778902e-10 -2.9819945467275469e-03 0.0000000000000000e+00  1.8089844839296458e-09 -2.8752179802677262e-03 0.0000000000000000e+00  1.2466109734110675e-09 -3.0129363046568218e-03 0.0000000000000000e+00  2.5106569148985369e-10 -1.8287063533907637e-03 0.0000000000000000e+00  0.0000000000000000e+00 0.0000000000000000e+00 0.0000000000000000e+00  4.2055097960717067e-09 -2.9111663910861090e-03 0.0000000000000000e+00  2.9840802985016959e-09 -2.9931002510503002e-03 0.0000000000000000e+00  2.4532142910898695e-09 -1.8189582003811957e-03 0.0000000000000000e+00  3.2834652601323673e-10 -3.0253582587662950e-03 0.0000000000000000e+00  -6.3029772091267243e-11 -3.0228601756322505e-03 0.0000000000000000e+00  9.1392649471491403e-10 -3.0261423109712578e-03 0.0000000000000000e+00  8.4224398335138028e-10 -3.0268604281091403e-03 0.0000000000000000e+00  2.1807722996803621e-09 -3.0212385198361163e-03 0.0000000000000000e+00  -5.8635678596964907e-09 -2.8694730972405637e-03 0.0000000000000000e+00  -6.7920722071822831e-09 -2.9887479862764116e-03 0.0000000000000000e+00  -5.7727340971103928e-09 -1.8050139806042663e-03 0.0000000000000000e+00  -3.0714890057912852e-09 -3.0050672291146458e-03 0.0000000000000000e+00  -9.0085265783669202e-09 -2.7363159878553119e-03 0.0000000000000000e+00  2.3963823798864002e-09 -3.0250275673207394e-03 0.0000000000000000e+00  1.3121223597659542e-09 -3.0265601709486278e-03 0.0000000000000000e+00  1.8451628839806858e-09 -3.0269260387560566e-03 0.0000000000000000e+00  2.8192055429459094e-07 -2.8587689697591985e-03 0.0000000000000000e+00  3.5116289675961216e-07 -2.9387384244970527e-03 0.0000000000000000e+00  1.3659404612185979e-07 -2.7711021166245062e-03 0.0000000000000000e+00  -3.0662313460011410e-09 -3.0121329116024383e-03 0.0000000000000000e+00  -4.1807877722738378e-09 -3.0091498795973563e-03 0.0000000000000000e+00  4.2905089651572000e-10 -3.0261195840499970e-03 0.0000000000000000e+00  5.7706645422788013e-10 -3.0134340242437998e-03 0.0000000000000000e+00  4.5945336949186163e-10 -3.0091675217983173e-03 0.0000000000000000e+00  1.2289114040778198e-09 -3.0263089259400765e-03 0.0000000000000000e+00  -2.7927238226376179e-09 -3.0122227240647810e-03 0.0000000000000000e+00  -3.6554231615944442e-09 -3.0100596259550684e-03 0.0000000000000000e+00  -2.6021359563636516e-09 -3.0261290000677598e-03 0.0000000000000000e+00  3.2306225965674331e-09 -2.8942670622677216e-03 0.0000000000000000e+00  1.7482034281447365e-09 -3.0093754126931083e-03 0.0000000000000000e+00  2.4650788484907473e-09 -3.0175821879739949e-03 0.0000000000000000e+00  -1.2440726236794782e-10 -3.0190791585172835e-03 0.0000000000000000e+00  3.6904988416547602e-09 -3.0171804470858774e-03 0.0000000000000000e+00  4.1506749581710804e-09 -3.0170840747040218e-03 0.0000000000000000e+00  4.8357595057461240e-09 -3.0093934069354939e-03 0.0000000000000000e+00  4.9330898479987870e-09 -3.0176628763692852e-03 0.0000000000000000e+00  4.3804224992909805e-09 -3.0191324573685409e-03 0.0000000000000000e+00  2.6473701827651979e-09 -2.8990013605918086e-03 0.0000000000000000e+00  1.8336656608180233e-09 -3.0121291189010605e-03 0.0000000000000000e+00  5.0227776290619661e-10 -3.0167083227691945e-03 0.0000000000000000e+00  3.0106642504916076e-10 -3.0108812336329129e-03 0.0000000000000000e+00  2.0526153326994923e-09 -3.0174103148739263e-03 0.0000000000000000e+00  -1.5033104884191401e-10 -3.0184288810550151e-03 0.0000000000000000e+00  -1.5386731576782552e-09 -2.8990486711308709e-03 0.0000000000000000e+00  -3.2797472759457048e-09 -3.0121678426794671e-03 0.0000000000000000e+00  -2.2114916148535229e-09 -3.0167777141601156e-03 0.0000000000000000e+00  -1.8487516265872185e-09 -3.0110846605346550e-03 0.0000000000000000e+00  -1.6543245156123334e-09 -3.0174399263849776e-03 0.0000000000000000e+00  -1.4599305840907000e-09 -3.0186125699593106e-03 0.0000000000000000e+00  4.8604152348150098e-09 -3.0120748907675691e-03 0.0000000000000000e+00  2.5133333531488080e-09 -3.0167399269162396e-03 0.0000000000000000e+00  3.7467727746173491e-09 -3.0107519831584139e-03 0.0000000000000000e+00  -5.7347669201913248e-10 -3.0120914501355384e-03 0.0000000000000000e+00  -8.2745642352059177e-10 -3.0167520284975712e-03 0.0000000000000000e+00  1.3657242116049361e-10 -3.0107675848426267e-03 0.0000000000000000e+00  2.5894055202765355e-09 -2.9010092851921940e-03 0.0000000000000000e+00  3.3651359551066539e-09 -3.0123529928416603e-03 0.0000000000000000e+00  3.2974287348677211e-09 -3.0168724797351963e-03 0.0000000000000000e+00  3.6633497721162388e-09 -3.0110838279649005e-03 0.0000000000000000e+00  3.1640942202937903e-09 -3.0175895060137120e-03 0.0000000000000000e+00  2.9210573217940827e-09 -3.0185493317313327e-03 0.0000000000000000e+00  2.8918690707800388e-09 -3.0122856860392471e-03 0.0000000000000000e+00  2.7054812326263348e-09 -3.0167059109157727e-03 0.0000000000000000e+00  2.1755619135440213e-09 -3.0103071929034656e-03 0.0000000000000000e+00  -2.3277707350579276e-09 -2.9008269062215293e-03 0.0000000000000000e+00  -2.0170553193738126e-09 -3.0118784766240349e-03 0.0000000000000000e+00  -1.7551523148416224e-09 -3.0166206571907066e-03 0.0000000000000000e+00  -1.3002515685072890e-09 -3.0062811826461681e-03 0.0000000000000000e+00  -2.6440864166119851e-09 -3.0175648078178373e-03 0.0000000000000000e+00  -1.7910091130557745e-09 -3.0184379014669533e-03 0.0000000000000000e+00  -3.6258101030439295e-09 -3.0123064702737975e-03 0.0000000000000000e+00  -2.8593300503559241e-09 -3.0167046593258429e-03 0.0000000000000000e+00  -3.3450795858030852e-09 -3.0107583510201033e-03 0.0000000000000000e+00  6.2322921265376362e-09 -2.8989728828375111e-03 0.0000000000000000e+00  9.6296911517171170e-09 -3.0120638778695077e-03 0.0000000000000000e+00  1.0348895936346350e-08 -3.0167023526499444e-03 0.0000000000000000e+00  1.1570988630150596e-08 -3.0107007386518990e-03 0.0000000000000000e+00  8.6505404446321197e-09 -3.0174075131526672e-03 0.0000000000000000e+00  8.5307610297542379e-09 -3.0184133484914659e-03 0.0000000000000000e+00  4.8109212642495672e-09 -2.9100343790054812e-03 0.0000000000000000e+00  3.9285726235578799e-09 -2.9995017139209132e-03 0.0000000000000000e+00  2.5007782978042077e-09 -3.0184538043721686e-03 0.0000000000000000e+00  1.4088234852396177e-09 -3.0126519468339366e-03 0.0000000000000000e+00  4.2264230717340706e-09 -3.0173731398575828e-03 0.0000000000000000e+00  2.4274153768567289e-09 -3.0189702819018766e-03 0.0000000000000000e+00  -4.8194104123529508e-09 -2.8989926133409201e-03 0.0000000000000000e+00  -6.1767879189722136e-09 -3.0120743803185913e-03 0.0000000000000000e+00  -4.1209944344700099e-09 -3.0166928200591691e-03 0.0000000000000000e+00  -4.