<?xml version="1.0"?>
<VTKFile type="UnstructuredGrid"  version="0.1"  >
<UnstructuredGrid>
<Piece  NumberOfPoints="2690" NumberOfCells="4864">
<Points>
<DataArray  type="Float64"  NumberOfComponents="3"  format="ascii">-5.057562362495096 22.01261303521621 0  -5.650486555655833 21.27523239752433 0  -5.056422382148678 21.51364602063828 0  -5.055087383525487 21.01268044412138 0  -5.65161978656647 21.77546228626084 0  -6.245688211625767 21.53627647948203 0  -9 21.99999999996945 0  -8.405279497410351 21.26513572521891 0  -9 21.49999999997139 0  -9 20.99999999997333 0  -8.405480768821294 21.76512100840045 0  -7.810772148361202 21.53020897742545 0  -9 32.9999999999446 0  -8.409688945701394 32.26509465960012 0  -9 32.49999999994358 0  -9 31.99999999994255 0  -8.409890094792857 32.7650984736634 0  -7.819589729627861 32.53016700054683 0  -5.086821202586681 33.013635475748 0  -5.593710975950081 32.30985004835438 0  -5.085629727879063 32.51544611999126 0  -5.084215943236931 32.01319553282871 0  -5.59488207098164 32.81019903882206 0  -6.102953449058004 32.60480800312749 0  -5.143430570796236 54.01300253603426 0  -5.726533673935157 54.74989780112839 0  -5.725416145590038 54.25044032759473 0  -6.307242683102284 54.48596982687172 0  -5.14473356139101 54.51396196307018 0  -5.145903989660312 55.01313903188299 0  -9 54.99999999998974 0  -8.489021042571263 54.2983395079465 0  -9 54.49999999998872 0  -9 53.99999999998769 0  -8.489197695400584 54.79828549264083 0  -7.978255166949741 54.59658838163732 0  -9 39.99999999995897 0  -8.413105128546862 40.74005351597241 0  -8.412903940755768 40.24005629519883 0  -7.825999979465974 40.48007491409529 0  -9 40.49999999996 0  -9 40.99999999996102 0  -5.10820830925838 41.01206687491691 0  -5.667499221868536 40.28080655720326 0  -5.107027772617014 40.51402189898236 0  -5.105721540938175 40.01358707532592 0  -5.668634533153152 40.78060194562199 0  -6.229108345738438 40.54693151844998 0  -9 55.99999999999179 0  -8.443436400627865 56.74569095251501 0  -8.443261724969009 56.245656871426 0  -7.886706348177205 56.49131297933548 0  -9 56.49999999999282 0  -9 56.99999999999384 0  -5.14882500907409 56.01241994224166 0  -5.7071991132558 56.75578700016753 0  -5.706095372223973 56.25573423603921 0  -6.263167888174159 56.49748292774346 0  -5.150209139357001 56.5143796300497 0  -5.151375643714366 57.0131777494741 0  -7.481904440645334 43.00714188231508 0  -6.65830630178739 43.11932666652651 0  -7.250580681076529 43.3456907424691 0  -7.019361465738801 43.68424957800414 0  -6.889524615090653 42.78069977877173 0  -6.296963047434642 42.55426114986651 0  -6.641471987847433 49.01348217054055 0  -7.461763597368356 48.90054081199221 0  -6.87173914934002 48.67483810051148 0  -7.102123486089987 48.33615358248865 0  -7.231389253982688 49.23915803400929 0  -7.8211153521598 49.46493048500599 0  -6.636585404124103 46.01266346109909 0  -7.458578673732512 45.90001200098008 0  -6.867346187135703 45.67387168783362 0  -7.098218212312462 45.3351452028355 0  -7.227714157737896 46.23872909735834 0  -7.818660027150556 46.46474722522625 0  -6.573504668594953 7.013111335721035 0  -7.417442155055109 6.90036514174802 0  -6.810442169909012 6.674460187956875 0  -7.047491351598553 6.335812118922532 0  -7.18040056285018 7.23901124082568 0  -7.787114850804837 7.464901558545388 0  -7.468340698463486 30.00706124602297 0  -6.637378551361055 30.1191474152386 0  -7.234951287892158 30.3454167526458 0  -7.001669060428731 30.68372854316223 0  -6.87066374492972 29.780749845746 0  -6.272800856290743 29.5545084398179 0  -6.568847623999203 4.012483127551248 0  -7.414646814329014 4.116315453515197 0  -6.807188715945514 4.348709059312913 0  -7.045434394114571 4.684893830205875 0  -7.17640753327992 3.780105142415165 0  -7.784123908929427 3.547809174082035 0  -6.578269606561703 10.01322435918471 0  -7.420768995651111 10.1168110126848 0  -6.81570396831314 10.34928496389609 0  -7.053038925517763 10.68534610192693 0  -7.183425646544014 9.780762722090236 0  -7.788767060913727 9.548285615104559 0  -6.583046930427655 13.01334070940216 0  -7.42365858647298 12.90054985926524 0  -6.819044478589293 12.67469389235254 0  -7.055153006954618 12.33605126843868 0  -7.187553889520352 13.23921180649391 0  -7.791883204658018 13.46504557100946 0  -6.587850042808009 16.01354489715827 0  -7.426796264577049 15.90060970847712 0  -6.823375856860686 15.67491306986398 0  -7.059015216035971 15.33624838269063 0  -7.191165981280315 16.23922568907543 0  -7.794296012844364 16.46498284613005 0  -6.592757582725526 19.01213071616596 0  -7.430227752916433 19.11595658389655 0  -6.828808951462443 19.34797382958683 0  -7.064746172339005 19.68389348917808 0  -7.194281128504938 18.77999770862489 0  -7.79599820855004 18.5478296296249 0  -6.605720527704503 27.01167743343001 0  -7.438682515665721 27.11567273625268 0  -6.840487313002402 27.34777648900745 0  -7.075150226131045 27.68389385379232 0  -7.204016297229383 26.77948350480226 0  -7.802493782368116 26.54739575090673 0  -8.278247005958649 19.09747474225063 0  -8.037168276861026 18.82263220093463 0  -8.397887522003602 18.27395011827258 0  -8.638988073785631 18.54879274821032 0  -9 17.99999999998495 0  -8.282135753536867 27.09733191277339 0  -8.042359091722702 26.82236542580329 0  -8.401137906929531 26.2736862196688 0  -8.640935682807985 26.54866357357787 0  -9 25.99999999995395 0  -8.276684118512561 15.91011761139153 0  -8.035445060921738 16.1875574124814 0  -8.39725767786785 16.73246286697569 0  -8.638474924647792 16.45503805685601 0  -9 16.99999999998883 0  -5.795636016274164 30.10933002411772 0  -6.034170564273737 29.83190418850797 0  -5.674651019223809 29.2865320787749 0  -5.436098521484785 29.56455211229155 0  -5.076036469325949 29.01259847927627 0  -8.275240107144656 12.91011239703082 0  -8.033517298617724 13.18757633452848 0  -8.396049055170685 13.73252829091632 0  -8.637751121714292 13.45506232086857 0  -9 13.99999999999401 0  -8.273898179481883 10.09787509800339 0  -8.031376125957248 9.823080874945564 0  -8.394275561922552 9.274140739840945 0  -8.636819280969309 9.548935040299824 0  -9 8.99999999999857 0  -8.271092687604138 4.097640533607031 0  -8.027647723959625 3.822735366899202 0  -8.391974936922145 3.273886285275047 0  -8.635431345320416 3.548794098345486 0  -9 2.999999999998668 0  -8.27238338899399 6.910019967339122 0  -8.029704982563418 7.187458258056656 0  -8.393664393758282 7.732454529466801 0  -8.63632160141908 7.455017676601122 0  -9 7.999999999999485 0  -8.291296574089076 45.90985724360184 0  -8.054933640170852 46.18728750042494 0  -8.409439036158242 46.73239667427278 0  -8.645780361048571 46.45496772254142 0  -9 46.99999999997333 0  -8.29276154047689 48.91007872913463 0  -8.056892412375449 49.18751176117384 0  -8.410669440559163 49.73243555794478 0  -8.646516410385555 49.45502094525456 0  -9 49.99999999997949 0  -5.824038844665052 43.10948414271142 0  -6.060452133543094 42.83186820638289 0  -5.70411407035888 42.28610964158509 0  -5.467687135568633 42.56438947229522 0  -5.110782333555432 42.01208481207891 0  -5.777566507096439 23.93189871864168 0  -6.02295659398683 24.1982714700464 0  -5.666893149639725 24.74159854201906 0  -6.268251505338877 24.46468613821316 0  -5.421571818085159 24.47582355739932 0  -5.065638853696773 25.01253387922453 0  -8.298925086036286 52.08720713539474 0  -8.058565660383753 51.8207575868007 0  -8.40894252588029 51.27720687639331 0  -7.818115037967072 51.55434373908817 0  -8.649327576676631 51.54365567249391 0  -9 50.99999999998153 0  -5.808444946973793 38.09908221991206 0  -6.050404038791171 37.82989870448359 0  -5.695160416613073 37.28939019770468 0  -6.292456715373929 37.56075774554319 0  -5.453180891743991 37.55929190442223 0  -5.097355172404902 37.01152332366117 0  -5.801518029079621 34.93177721847111 0  -6.045096066742224 35.19805957120062 0  -5.691701197680277 35.74122900537448 0  -6.288579173303574 35.46438197932379 0  -5.448183599829267 35.47563390362144 0  -5.09493979781691 36.01195964943085 0  -7.921085105291062 50.50603522016119 0  -7.869580252694191 51.03020545587226 0  -8.460637292914273 50.75298432513573 0  -6.185806171332584 36.512453137442 0  -6.239145557541888 37.03652705277213 0  -5.641628228958441 36.76422161027001 0  -6.237175463551545 35.98833518072748 0  -5.6404843404452 36.26408191531947 0  -6.026858721326158 25.27365600168296 0  -6.147527777479801 24.86919821304062 0  -5.546325226582621 25.14539849075966 0  -8.043940258739591 25.7503465017373 0  -7.923184633791805 26.14887069381068 0  -8.522010508242033 25.87517532800639 0  -6.988954803606536 34.3851000252142 0  -6.638635675168477 34.92481308179839 0  -6.890149586979788 35.24812099795648 0  -7.24048478368199 34.70851224701482 0  -7.491902176916563 35.03190204783852 0  -7.12540880495268 52.63327327886762 0  -7.471627765453071 52.09387599472551 0  -7.223122898984601 51.77076366875264 0  -6.8769173890578 52.31019963034731 0  -6.628310374514068 51.98716223585797 0  -6.994802957805637 38.63321611203466 0  -6.643760977896836 38.09705962145072 0  -6.893790370721042 37.77128616297488 0  -7.244818945448925 38.30755356424205 0  -7.494946770345144 37.98186379575345 0  -6.973902728734621 23.38516739063837 0  -6.620947579275017 23.92497114242773 0  -6.87433513934969 24.24833622606065 0  -7.227307709592549 23.70862077978047 0  -7.480601096734484 24.0320387968885 0  -7.896651410378306 17.50590952451649 0  -7.846305623823337 18.02688843450564 0  -8.448419268451781 17.75292043300645 0  -7.845491065262473 16.9854530780044 0  -8.448232257802466 17.25297376575199 0  -7.890056503932391 8.506046220690578 0  -7.839394747786137 9.027167119463748 0  -8.445118373794488 8.753024452397502 0  -7.933119601060487 2.420850196243363 0  -7.858585289119302 2.984313730884306 0  -8.466644939765127 2.710442810767872 0  -7.838603314411624 7.98547719788164 0  -8.444936828874166 8.253018857367163 0  -7.8711183853244 49.98549033178188 0  -8.460447123144728 50.25303726799643 0  -6.108314420559397 41.6053285367072 0  -6.202669110938082 42.07984950859917 0  -5.60959972
[...]
<PointData  Vectors="f_27"> 
<DataArray  type="Float64"  Name="f_27"  NumberOfComponents="3" format="ascii">0.0000000000000000e+00 0.0000000000000000e+00 0.0000000000000000e+00  5.9565503618709300e-06 -1.0593018908370314e-02 0.0000000000000000e+00  0.0000000000000000e+00 0.0000000000000000e+00 0.0000000000000000e+00  0.0000000000000000e+00 0.0000000000000000e+00 0.0000000000000000e+00  -9.7030044545934190e-06 -1.4844756416350776e-02 0.0000000000000000e+00  9.1846668557001685e-06 -1.5272526394574762e-02 0.0000000000000000e+00  0.0000000000000000e+00 0.0000000000000000e+00 0.0000000000000000e+00  2.7557670440041856e-05 -1.0785106795191082e-02 0.0000000000000000e+00  0.0000000000000000e+00 0.0000000000000000e+00 0.0000000000000000e+00  0.0000000000000000e+00 0.0000000000000000e+00 0.0000000000000000e+00  6.4983297890006388e-05 -1.4807038022430647e-02 0.0000000000000000e+00  4.6907615578980839e-05 -1.5334627465154675e-02 0.0000000000000000e+00  0.0000000000000000e+00 0.0000000000000000e+00 0.0000000000000000e+00  2.7267848457328499e-05 -1.0524138494576599e-02 0.0000000000000000e+00  0.0000000000000000e+00 0.0000000000000000e+00 0.0000000000000000e+00  0.0000000000000000e+00 0.0000000000000000e+00 0.0000000000000000e+00  6.4586177807760209e-05 -1.4729026401264618e-02 0.0000000000000000e+00  4.8563454156659304e-05 -1.5257883627145448e-02 0.0000000000000000e+00  0.0000000000000000e+00 0.0000000000000000e+00 0.0000000000000000e+00  1.0188286736268241e-05 -1.1057745401893320e-02 0.0000000000000000e+00  0.0000000000000000e+00 0.0000000000000000e+00 0.0000000000000000e+00  0.0000000000000000e+00 0.0000000000000000e+00 0.0000000000000000e+00  9.9642166918607573e-06 -1.4796921248200286e-02 0.0000000000000000e+00  2.1471886337631634e-05 -1.5302254106732006e-02 0.0000000000000000e+00  0.0000000000000000e+00 0.0000000000000000e+00 0.0000000000000000e+00  2.0781553199651929e-05 -1.0900712361990328e-02 0.0000000000000000e+00  5.5456029427845996e-05 -1.4610960374131387e-02 0.0000000000000000e+00  4.0844009049490375e-05 -1.5117405962896615e-02 0.0000000000000000e+00  0.0000000000000000e+00 0.0000000000000000e+00 0.0000000000000000e+00  0.0000000000000000e+00 0.0000000000000000e+00 0.0000000000000000e+00  0.0000000000000000e+00 0.0000000000000000e+00 0.0000000000000000e+00  2.3852545563097541e-05 -1.0882018408593579e-02 0.0000000000000000e+00  0.0000000000000000e+00 0.0000000000000000e+00 0.0000000000000000e+00  0.0000000000000000e+00 0.0000000000000000e+00 0.0000000000000000e+00  3.7256759177667404e-05 -1.4755077467638707e-02 0.0000000000000000e+00  3.6456649783294294e-05 -1.5160098057092591e-02 0.0000000000000000e+00  0.0000000000000000e+00 0.0000000000000000e+00 0.0000000000000000e+00  2.1452967183558639e-05 -1.0454624557166810e-02 0.0000000000000000e+00  6.5544405487067537e-06 -1.4687473700075547e-02 0.0000000000000000e+00  2.2236153597706414e-05 -1.5206617536066514e-02 0.0000000000000000e+00  0.0000000000000000e+00 0.0000000000000000e+00 0.0000000000000000e+00  0.0000000000000000e+00 0.0000000000000000e+00 0.0000000000000000e+00  0.0000000000000000e+00 0.0000000000000000e+00 0.0000000000000000e+00  2.2644631761430139e-05 -1.0643791747646639e-02 0.0000000000000000e+00  0.0000000000000000e+00 0.0000000000000000e+00 0.0000000000000000e+00  0.0000000000000000e+00 0.0000000000000000e+00 0.0000000000000000e+00  1.1235707040414860e-05 -1.4858880056459375e-02 0.0000000000000000e+00  2.3370548459167108e-05 -1.5241013512476944e-02 0.0000000000000000e+00  0.0000000000000000e+00 0.0000000000000000e+00 0.0000000000000000e+00  3.7585630176226672e-05 -1.1296597828385335e-02 0.0000000000000000e+00  1.9888726444081088e-05 -1.4660204709021263e-02 0.0000000000000000e+00  3.8073208023929923e-05 -1.5138639936106441e-02 0.0000000000000000e+00  0.0000000000000000e+00 0.0000000000000000e+00 0.0000000000000000e+00  0.0000000000000000e+00 0.0000000000000000e+00 0.0000000000000000e+00  0.0000000000000000e+00 0.0000000000000000e+00 0.0000000000000000e+00  1.1842085220749661e-05 -1.1302530229485007e-02 0.0000000000000000e+00  3.9970219055850450e-05 -1.4659418015396606e-02 0.0000000000000000e+00  2.7041262525058967e-05 -1.5132354790046470e-02 0.0000000000000000e+00  0.0000000000000000e+00 0.0000000000000000e+00 0.0000000000000000e+00  0.0000000000000000e+00 0.0000000000000000e+00 0.0000000000000000e+00  5.0780553597782272e-05 -1.5633368534624475e-02 0.0000000000000000e+00  5.6164477054939402e-05 -1.5645814381743360e-02 0.0000000000000000e+00  4.9574675361719345e-05 -1.5646158534080631e-02 0.0000000000000000e+00  4.6925972984333709e-05 -1.5646093658465646e-02 0.0000000000000000e+00  5.2792027190807798e-05 -1.5644998655203923e-02 0.0000000000000000e+00  4.6723799281490264e-05 -1.5591056768193421e-02 0.0000000000000000e+00  6.5540375236530744e-05 -1.5583820380022919e-02 0.0000000000000000e+00  6.0849609429086548e-05 -1.5578800971625706e-02 0.0000000000000000e+00  6.6149149013736713e-05 -1.5599576185798124e-02 0.0000000000000000e+00  6.4669809186121267e-05 -1.5593194108419745e-02 0.0000000000000000e+00  5.9758001038117108e-05 -1.5593807349200458e-02 0.0000000000000000e+00  5.0091904760605058e-05 -1.5535622754504411e-02 0.0000000000000000e+00  5.3420659422208935e-05 -1.5608880806909158e-02 0.0000000000000000e+00  4.7299116455731169e-05 -1.5616561861586798e-02 0.0000000000000000e+00  4.8169758757326181e-05 -1.5623411199626897e-02 0.0000000000000000e+00  4.3084786479338953e-05 -1.5628389748657240e-02 0.0000000000000000e+00  5.0749527634905492e-05 -1.5613967046075813e-02 0.0000000000000000e+00  4.3794149294650591e-05 -1.5551537853349322e-02 0.0000000000000000e+00  5.3215947552099763e-05 -1.5842930232716188e-02 0.0000000000000000e+00  4.7429690036757303e-05 -1.5853882478560677e-02 0.0000000000000000e+00  5.0437565671734875e-05 -1.5859053654190589e-02 0.0000000000000000e+00  5.1027354284744280e-05 -1.5862217499975410e-02 0.0000000000000000e+00  4.8274739173176910e-05 -1.5853991078852516e-02 0.0000000000000000e+00  4.0117834855407694e-05 -1.5798351086086945e-02 0.0000000000000000e+00  4.5430471036063883e-05 -1.5705846108821267e-02 0.0000000000000000e+00  5.6912459510206415e-05 -1.5699394145286372e-02 0.0000000000000000e+00  4.6040447314296260e-05 -1.5722760529630231e-02 0.0000000000000000e+00  4.5051426065237785e-05 -1.5711054316079557e-02 0.0000000000000000e+00  5.1621187856515546e-05 -1.5714272956195232e-02 0.0000000000000000e+00  5.0111562784260853e-05 -1.5653217754115739e-02 0.0000000000000000e+00  6.0351766412367983e-05 -1.5871079679767468e-02 0.0000000000000000e+00  5.5794095208157555e-05 -1.5870965408822324e-02 0.0000000000000000e+00  5.8397170057054576e-05 -1.5878806791230732e-02 0.0000000000000000e+00  5.5699153432967588e-05 -1.5875505600340976e-02 0.0000000000000000e+00  5.6667402466273116e-05 -1.5874636147540550e-02 0.0000000000000000e+00  5.7958295168794168e-05 -1.5819539482833732e-02 0.0000000000000000e+00  6.1262228967233191e-05 -1.5831689188825625e-02 0.0000000000000000e+00  5.7374527635179414e-05 -1.5834659856916764e-02 0.0000000000000000e+00  5.7601400353821322e-05 -1.5839961221917734e-02 0.0000000000000000e+00  5.5373631948035025e-05 -1.5837420404219333e-02 0.0000000000000000e+00  6.1382053938429247e-05 -1.5838775701995430e-02 0.0000000000000000e+00  6.5729758654387501e-05 -1.5776910109105358e-02 0.0000000000000000e+00  5.2863502679961077e-05 -1.5805960710456073e-02 0.0000000000000000e+00  4.8880931658027479e-05 -1.5817383997658706e-02 0.0000000000000000e+00  5.0851349035989454e-05 -1.5822333782386486e-02 0.0000000000000000e+00  5.2025422308182135e-05 -1.5825640317368484e-02 0.0000000000000000e+00  4.8779924340389124e-05 -1.5815812585218195e-02 0.0000000000000000e+00  4.1847993602346248e-05 -1.5756114093087258e-02 0.0000000000000000e+00  6.2621318018536576e-05 -1.5790696879301621e-02 0.0000000000000000e+00  5.8017569299469495e-05 -1.5785078211728802e-02 0.0000000000000000e+00  6.3161011940223008e-05 -1.5805745031224627e-02 0.0000000000000000e+00  6.1677788924459343e-05 -1.5798909468703194e-02 0.0000000000000000e+00  5.6774233589679347e-05 -1.5800746696279060e-02 0.0000000000000000e+00  4.7325625058619608e-05 -1.5742567823371776e-02 0.0000000000000000e+00  7.3538111262911102e-05 -1.5766760632158559e-02 0.0000000000000000e+00  5.8311357836511532e-05 -1.5768688159197797e-02 0.0000000000000000e+00  6.7445700305995162e-05 -1.5786918461251725e-02 0.0000000000000000e+00  5.6434020614304692e-05 -1.5774745535030468e-02 0.0000000000000000e+00  6.6143341730889199e-05 -1.5785164762618657e-02 0.0000000000000000e+00  6.6919691690523652e-05 -1.5723843200852381e-02 0.0000000000000000e+00  6.7838779845242171e-05 -1.5722467159109747e-02 0.0000000000000000e+00  5.7992620350421250e-05 -1.5735854538831182e-02 0.0000000000000000e+00  6.4878984813180696e-05 -1.5739119695421223e-02 0.0000000000000000e+00  5.6777254170830381e-05 -1.5731900984869818e-02 0.0000000000000000e+00  5.9104923756904183e-05 -1.5737169083727413e-02 0.0000000000000000e+00  5.7676273199202642e-05 -1.5683274538997531e-02 0.0000000000000000e+00  4.1841931306809043e-05 -1.4783313610279989e-02 0.0000000000000000e+00  5.8955141027814671e-05 -1.5628239204272001e-02 0.0000000000000000e+00  7.0045170374324076e-05 -1.4960533331387377e-02 0.0000000000000000e+00  4.3911930497750540e-05 -1.0625704418869973e-02 0.0000000000000000e+00  0.0000000000000000e+00 0.0000000000000000e+00 0.0000000000000000e+00  4.4145294258238596e-05 -1.4744378084605523e-02 0.0000000000000000e+00  5.2134269461433885e-05 -1.5579646522549215e-02 0.0000000000000000e+00  5.6729217560531804e-05 -1.4917226122842157e-02 0.0000000000000000e+00  3.7566532464865235e-05 -1.0569261671081314e-02 0.0000000000000000e+00  0.0000000000000000e+00 0.0000000000000000e+00 0.0000000000000000e+00  4.6095277378438047e-05 -1.4813955604371928e-02 0.0000000000000000e+00  4.0247370293433018e-05 -1.5636872365471930e-02 0.0000000000000000e+00  2.7744384877080073e-05 -1.5064359380618061e-02 0.0000000000000000e+00  1.4316078940844633e-05 -1.0531459875845061e-02 0.0000000000000000e+00  0.0000000000000000e+00 0.0000000000000000e+00 0.0000000000000000e+00  5.9677359023732474e-05 -1.4713216785682980e-02 0.0000000000000000e+00  7.8735634795642657e-05 -1.5548423984020732e-02 0.0000000000000000e+00  3.1302281327157851e-05 -1.4924088189519583e-02 0.0000000000000000e+00  2.4106978470712487e-05 -1.0583456964758079e-02 0.0000000000000000e+00  0.0000000000000000e+00 0.0000000000000000e+00 0.0000000000000000e+00  4.5696697539416952e-05 -1.4822275730353459e-02 0.0000000000000000e+00  4.0609267647303013e-05 -1.5653982871630261e-02 0.0000000000000000e+00  3.0071636465426106e-05 -1.4993302535680758e-02 0.0000000000000000e+00  2.3265872866409223e-05 -1.0645760479101348e-02 0.0000000000000000e+00  0.0000000000000000e+00 0.0000000000000000e+00 0.0000000000000000e+00  4.9744515506434540e-05 -1.4836525196056410e-02 0.0000000000000000e+00  6.1369284455275511e-05 -1.5674745973323710e-02 0.0000000000000000e+00  7.0810041904114396e-05 -1.5005616844178934e-02 0.0000000000000000e+00  4.6643463452788672e-05 -1.0673594030306717e-02 0.0000000000000000e+00  0.0000000000000000e+00 0.0000000000000000e+00 0.0000000000000000e+00  4.9762911293631534e-05 -1.4891533474372361e-02 0.0000000000000000e+00  5.7682912883213169e-05 -1.5706470031305503e-02 0.0000000000000000e+00  6.4552322280021505e-05 -1.5137897742692035e-02 0.0000000000000000e+00  4.9399982218443352e-05 -1.0607096796613317e-02 0.0000000000000000e+00  0.0000000000000000e+00 0.0000000000000000e+00 0.0000000000000000e+00  3.8410666997452529e-05 -1.4876657853363897e-02 0.0000000000000000e+00  3.3584486200850369e-05 -1.5689010070161657e-02 0.0000000000000000e+00  2.3187791253858709e-05 -1.5112801208362583e-02 0.0000000000000000e+00  1.1115963306132973e-05 -1.0584876761177683e-02 0.0000000000000000e+00  0.0000000000000000e+00 0.0000000000000000e+00 0.0000000000000000e+00  4.6989363459616137e-05 -1.4609060662764621e-02 0.0000000000000000e+00  4.2015108695061717e-05 -1.5445688784940778e-02 0.0000000000000000e+00  3.2317950742200837e-05 -1.4794374933856677e-02 0.0000000000000000e+00  2.4094790711313730e-05 -1.0435231302499723e-02 0.0000000000000000e+00  0.0000000000000000e+00 0.0000000000000000e+00 0.0000000000000000e+00  4.8137516139392290e-05 -1.4601329294627039e-02 0.0000000000000000e+00  4.2968114793861292e-05 -1.5427750532224734e-02 0.0000000000000000e+00  3.0868610458887084e-05 -1.4863548060371537e-02 0.0000000000000000e+00  1.6560708628783911e-05 -1.0322658378676224e-02 0.0000000000000000e+00  0.0000000000000000e+00 0.0000000000000000e+00 0.0000000000000000e+00  5.6550763722871374e-05 -1.4647430887922391e-02 0.0000000000000000e+00  7.5164636388753707e-05 -1.5483259010058805e-02 0.0000000000000000e+00  2.1643993357157448e-05 -1.4858173675058187e-02 0.0000000000000000e+00  2.1897039488277185e-05 -1.0514519988650347e-02 0.0000000000000000e+00  0.0000000000000000e+00 0.0000000000000000e+00 0.0000000000000000e+00  6.1033346295873748e-05 -1.4818688640657694e-02 0.0000000000000000e+00  8.5510993847054891e-05 -1.5608228758000690e-02 0.0000000000000000e+00  5.5033268611436032e-05 -1.4893612314596620e-02 0.0000000000000000e+00  6.1724125500559076e-05 -1.5694024672828596e-02 0.0000000000000000e+00  3.9004192917932593e-05 -1.0571892285905575e-02 0.0000000000000000e+00  0.0000000000000000e+00 0.0000000000000000e+00 0.0000000000000000e+00  4.8175376085109105e-05 -1.4634973326451677e-02 0.0000000000000000e+00  6.1974916263599688e-05 -1.5425212411937452e-02 0.0000000000000000e+00  7.0468479063908596e-05 -1.4758200005837396e-02 0.0000000000000000e+00  6.5537042604203320e-05 -1.5509505225974041e-02 0.0000000000000000e+00  4.3822859454146227e-05 -1.0447551642429375e-02 0.0000000000000000e+00  0.0000000000000000e+00 0.0000000000000000e+00 0.0000000000000000e+00  5.8233879010996244e-05 -1.4733401745011424e-02 0.0000000000000000e+00  6.9294190235537261e-05 -1.5509853298193132e-02 0.0000000000000000e+00  1.4340614852521600e-05 -1.4881277737689519e-02 0.0000000000000000e+00  4.3154236572696959e-05 -1.5600341035930798e-02 0.0000000000000000e+00  2.1836110657125396e-05 -1.0584653723682396e-02 0.0000000000000000e+00  0.0000000000000000e+00 0.0000000000000000e+00 0.0000000000000000e+00  7.3440821227203267e-05 -1.4769989935018824e-02 0.0000000000000000e+00  9.8968254898527082e-05 -1.5533609155640865e-02 0.0000000000000000e+00  6.3090314493256125e-05 -1.4928995093042413e-02 0.0000000000000000e+00  6.8968554074615041e-05 -1.5630153142107413e-02 0.0000000000000000e+00  5.1930076997775681e-05 -1.0394427521331037e-02 0.0000000000000000e+00  0.0000000000000000e+00 0.0000000000000000e+00 0.0000000000000000e+00  5.5572689537581902e-05 -1.4927323806036993e-02 0.0000000000000000e+00  6.7055779589256934e-05 -1.5513644765712807e-02 0.0000000000000000e+00  7.4745456122963676e-05 -1.4379740040204265e-02 0.0000000000000000e+00  9.4952368011405771e-06 -1.5019688617007757e-02 0.0000000000000000e+00  2.4804951881646423e-05 -1.5603447049520379e-02 0.0000000000000000e+00  -3.7139704585033192e-05 -1.4475675138079666e-02 0.0000000000000000e+00  5.3333949916306034e-05 -1.5551661696277990e-02 0.0000000000000000e+00  -1.3291665612372609e-05 -1.0016691462980769e-02 0.0000000000000000e+00  2.5534342351927274e-05 -1.5252460105038498e-02 0.0000000000000000e+00  4.9234895672414278e-05 -1.5687913863656307e-02 0.0000000000000000e+00  1.0264434957067708e-05 -1.4632265560755246e-02 0.0000000000000000e+00  5.1636815779468911e-05 -1.5188585197966628e-02 0.0000000000000000e+00  5.4298613933281973e-05 -1.5672239924537593e-02 0.0000000000000000e+00  5.9215073640300748e-05 -1.4622940725904506e-02 0.0000000000000000e+00  5.9883268313561943e-05 -1.5693063349578897e-02 0.0000000000000000e+00  7.0431746019013794e-05 -1.5674184216393168e-02 0.0000000000000000e+00  6.1888096491434798e-05 -1.5692823682655881e-02 0.0000000000000000e+00  6.1235425268196206e-05 -1.5695198227036376e-02 0.0000000000000000e+00  5.6140689244373558e-05 -1.5679023966748095e-02 0.0000000000000000e+00  6.0362583709816128e-05 -1.5557720230588021e-02 0.0000000000000000e+00  5.4901216089305895e-05 -1.5540901449694975e-02 0.0000000000000000e+00  6.2912351777581914e-05 -1.5573127766519500e-02 0.0000000000000000e+00  6.4601604638133995e-05 -1.5572440987473268e-02 0.0000000000000000e+00  6.4457778388812332e-05 -1.5550015468090898e-02 0.0000000000000000e+00  5.0965164077187252e-05 -1.5666326337036771e-02 0.0000000000000000e+00  6.1400571123402790e-05 -1.5646765513215422e-02 0.0000000000000000e+00  4.9083805319982294e-05 -1.5666789681209443e-02 0.0000000000000000e+00  5.0442743432686393e-05 -1.5671433636830882e-02 0.0000000000000000e+00  4.4346049421387642e-05 -1.5658947463001983e-02 0.0000000000000000e+00  5.3358795052580466e-05 -1.5759421788613816e-02 0.0000000000000000e+00  6.2236021911397330e-05 -1.5744437286992694e-02 0.0000000000000000e+00  5.4347510322564344e-05 -1.5758800038439814e-02 0.0000000000000000e+00  5.4431960475674832e-05 -1.5760479432858025e-02 0.0000000000000000e+00  4.7861656772243085e-05 -1.5736808683929640e-02 0.0000000000000000e+00  5.4322843542136626e-05 -1.5135293516438639e-02 0.0000000000000000e+00  6.7051906897183346e-05 -1.5723173190287310e-02 0.0000000000000000e+00  7.5265196895492388e-05 -1.4590667729569249e-02 0.0000000000000000e+00  4.2014924461406049e-05 -1.5668390451501472e-02 0.0000000000000000e+00  2.7266009326635428e-05 -1.0111451675203826e-02 0.0000000000000000e+00  5.1788617715497249e-05 -1.5187222011425732e-02 0.0000000000000000e+00  6.5233855549907656e-05 -1.5772690066793233e-02 0.0000000000000000e+00  7.4839558551417852e-05 -1.4638558614629376e-02 0.0000000000000000e+00  4.8706079817024671e-05 -1.5326137120016429e-02 0.0000000000000000e+00  5.6031049261905847e-05 -1.5754358466390214e-02 0.0000000000000000e+00  3.3970443952928403e-05 -1.0280796529740481e-02 0.0000000000000000e+00  3.7214471426030855e-05 -1.5720058546237453e-02 0.0000000000000000e+00  2.5804051583037150e-05 -1.0155489652749894e-02 0.0000000000000000e+00  4.4388386864629845e-05 -1.5459384977280650e-02 0.0000000000000000e+00  2.8704109436892987e-05 -9.9292119215856796e-03 0.0000000000000000e+00  -9.9500492017273761e-07 -1.5077924084896490e-02 0.0000000000000000e+00  3.0313136118582561e-05 -1.5592364371121464e-02 0.0000000000000000e+00  -3.0180857513392429e-05 -1.4472261901164246e-02 0.0000000000000000e+00  4.6184686000976317e-05 -1.5754190681503837e-02 0.0000000000000000e+00  5.2038486867573938e-05 -1.5762337062987346e-02 0.0000000000000000e+00  4.7934757330495589e-05 -1.5758830378005097e-02 0.0000000000000000e+00  6.3333990435077131e-05 -1.5580722243540037e-02 0.0000000000000000e+00  6.4979228883902678e-05 -1.5583817431459429e-02 0.0000000000000000e+00  6.2474581742775153e-05 -1.5579626762188232e-02 0.0000000000000000e+00  4.1720989910407592e-05 -1.5672240977739098e-02 0.0000000000000000e+00  4.0635396149188411e-05 -1.5671789314954648e-02 0.0000000000000000e+00  4.5116131620330608e-05 -1.5674072402410939e-02 0.0000000000000000e+00  5.3668927692548135e-05 -1.5690641495053219e-02 0.0000000000000000e+00  5.8320249430440485e-05 -1.5693414906737306e-02 0.0000000000000000e+00  5.6771453888301736e-05 -1.5693564868373203e-02 0.0000000000000000e+00  8.5352942306393954e-06 -1.5174584727286682e-02 0.0000000000000000e+00  3.6185720929503967e-05 -1.5650385336986157e-02 0.0000000000000000e+00  -2.4057346043199012e-05 -1.4580211148028800e-02 0.0000000000000000e+00  5.2581242760822970e-05 -1.5589171197679927e-02 0.0000000000000000e+00  6.1243793653847851e-05 -1.5575761126496902e-02 0.0000000000000000e+00  5.2537467635995088e-05 -1.5648640795333183e-02 0.0000000000000000e+00  6.3990405597721156e-05 -1.5182321767932641e-02 0.0000000000000000e+00  5.6189504222469855e-05 -1.5504625113248734e-02 0.0000000000000000e+00  6.3462369898524405e-05 -1.5578342377623332e-02 0.0000000000000000e+00  4.7962101196644867e-05 -1.5563051641498862e-02 0.0000000000000000e+00  4.6927118668761530e-05 -1.5540362000343078e-02 0.0000000000000000e+00  4.6044484736147118e-05 -1.5619148859811090e-02 0.00