<?xml version="1.0"?>
<VTKFile type="UnstructuredGrid"  version="0.1"  >
<UnstructuredGrid>
<Piece  NumberOfPoints="2530" NumberOfCells="4544">
<Points>
<DataArray  type="Float64"  NumberOfComponents="3"  format="ascii">-0.005 0.02899999999991747 0  -0.005567606561449265 0.02972952735170602 0  -0.005567606561449265 0.02922952735170672 0  -0.006135213122898529 0.02945905470349596 0  -0.005 0.02949999999991678 0  -0.005 0.02999999999991609 0  -0.008999999999999999 0.02999999999991609 0  -0.008477881325601233 0.02929081058473642 0  -0.008999999999999999 0.02949999999991678 0  -0.008999999999999999 0.02899999999991747 0  -0.008477881325601233 0.02979081058473573 0  -0.007955762651202469 0.02958162116955536 0  -0.008999999999999999 0.05699999999999127 0  -0.008455575182696982 0.05771508614433647 0  -0.008455575182696982 0.05721508614433456 0  -0.007911150365393967 0.05743017228867785 0  -0.008999999999999999 0.05749999999999318 0  -0.008999999999999999 0.05799999999999508 0  -0.006562500000003323 0.04699999999996404 0  -0.007410380031513026 0.04710817040743875 0  -0.006801005031513838 0.04733733707410809 0  -0.007039510063024354 0.04767467414825214 0  -0.007171875000002511 0.0467708333332947 0  -0.007781250000001699 0.04654166666662536 0  -0.006562499999996975 0.007999999999982715 0  -0.007410380031513406 0.007891829592506899 0  -0.006801005031512716 0.007662662925842622 0  -0.007039510063028456 0.007325325851702528 0  -0.007171874999997664 0.008229166666646992 0  -0.007781249999998355 0.008458333333311269 0  -0.006562499999996577 0.01099999999997411 0  -0.007410380031513544 0.01110817040744999 0  -0.006801005031512696 0.01133733707411394 0  -0.007039510063028815 0.01167467414825377 0  -0.007171874999997425 0.01077083333331016 0  -0.007781249999998272 0.01054166666664622 0  -0.005 0.02399999999993442 0  -0.005590674212597458 0.02326230314954376 0  -0.005 0.02349999999993588 0  -0.005 0.02299999999993733 0  -0.005590674212597458 0.02376230314954231 0  -0.006181348425194916 0.0235246062991502 0  -0.005 0.02099999999994222 0  -0.005564630812322937 0.0217315610722294 0  -0.005564630812322937 0.02123156107223086 0  -0.006129261624645875 0.0214631221445195 0  -0.005 0.02149999999994076 0  -0.005 0.0219999999999393 0  -0.008999999999999999 0.01999999999994686 0  -0.008409325787402531 0.01926230314955595 0  -0.008999999999999999 0.01949999999994807 0  -0.008999999999999999 0.01899999999994928 0  -0.008409325787402531 0.01976230314955475 0  -0.007818651574805061 0.01952460629916263 0  -0.008999999999999999 0.02499999999992978 0  -0.008409325787402541 0.02573769685032071 0  -0.008409325787402541 0.02523769685032191 0  -0.007818651574805081 0.02547539370071405 0  -0.008999999999999999 0.02549999999992857 0  -0.008999999999999999 0.02599999999992736 0  -0.008999999999999999 0.01599999999995916 0  -0.008409325787402512 0.01526230314956849 0  -0.008999999999999999 0.01549999999996053 0  -0.008999999999999999 0.0149999999999619 0  -0.008409325787402512 0.01576230314956713 0  -0.007818651574805024 0.01552460629917509 0  -0.008999999999999999 0.01799999999995125 0  -0.008435915727826615 0.01725427993967504 0  -0.008999999999999999 0.01749999999995307 0  -0.008999999999999999 0.01699999999995488 0  -0.008435915727826615 0.01775427993967323 0  -0.007871831455653231 0.0175085598793952 0  -0.008999999999999999 0.02699999999992539 0  -0.008434239959724898 0.02774706184850321 0  -0.008434239959724898 0.02724706184850503 0  -0.007868479919449797 0.02749412369708466 0  -0.008999999999999999 0.02749999999992357 0  -0.008999999999999999 0.02799999999992175 0  -0.008999999999999999 0.01399999999996497 0  -0.008437765310767197 0.0132645357198448 0  -0.008999999999999999 0.01349999999996647 0  -0.008999999999999999 0.01299999999996796 0  -0.008437765310767197 0.0137645357198433 0  -0.007875530621534396 0.01352907143972163 0  -0.005 0.002999999999993196 0  -0.005590674212597853 0.003737696850384681 0  -0.005590674212597853 0.003237696850385873 0  -0.006181348425195706 0.00347539370077855 0  -0.005 0.003499999999992004 0  -0.005 0.003999999999990813 0  -0.005 0.004999999999989164 0  -0.005559084057905018 0.005728935712846076 0  -0.005559084057905018 0.005228935712846881 0  -0.006118168115810037 0.005457871425704597 0  -0.005 0.00549999999998836 0  -0.005 0.005999999999987554 0  -0.005 0.05299999999997999 0  -0.005590674212599118 0.05373769685037712 0  -0.005590674212599118 0.05323769685037585 0  -0.006181348425198237 0.05347539370077171 0  -0.005 0.05349999999998126 0  -0.005 0.05399999999998254 0  -0.008999999999999999 0.05199999999997907 0  -0.008409325787400907 0.05126230314958195 0  -0.008999999999999999 0.0514999999999778 0  -0.008999999999999999 0.05099999999997653 0  -0.008409325787400907 0.05176230314958322 0  -0.007818651574801817 0.05152460629918738 0  -0.005 0.03699999999993814 0  -0.005590674212599064 0.03626230314954104 0  -0.005 0.03649999999993686 0  -0.005 0.03599999999993558 0  -0.005590674212599064 0.03676230314954232 0  -0.006181348425198127 0.03652460629914649 0  -0.005 0.03799999999993905 0  -0.005590674212599059 0.03873769685033618 0  -0.005590674212599059 0.0382376968503349 0  -0.006181348425198119 0.03847539370073075 0  -0.005 0.03849999999994033 0  -0.005 0.0389999999999416 0  -0.008999999999999999 0.04499999999995907 0  -0.008409325787400921 0.04426230314956281 0  -0.008999999999999999 0.04449999999995852 0  -0.008999999999999999 0.04399999999995796 0  -0.008409325787400921 0.04476230314956336 0  -0.007818651574801844 0.04452460629916766 0  -0.005 0.05499999999998635 0  -0.005561924071815199 0.05574035198473451 0  -0.005561924071815199 0.05524035198473292 0  -0.006123848143630398 0.05548070396947949 0  -0.005 0.05549999999998795 0  -0.005 0.05599999999998954 0  -0.008999999999999999 0.04999999999997271 0  -0.008437330811979935 0.04925705943891855 0  -0.008999999999999999 0.04949999999997112 0  -0.008999999999999999 0.04899999999996952 0  -0.008437330811979935 0.04975705943892015 0  -0.00787466162395987 0.04951411887786759 0  -0.005 0.03499999999993177 0  -0.005554118008684467 0.03427588870688815 0  -0.005 0.03449999999993018 0  -0.005 0.03399999999992859 0  -0.005554118008684467 0.03477588870688975 0  -0.006108236017368934 0.03455177741384772 0  -0.005 0.03999999999994542 0  -0.005565787062146483 0.04074708348495108 0  -0.005565787062146483 0.0402470834849495 0  -0.006131574124292967 0.04049416696995358 0  -0.005 0.04049999999994701 0  -0.005 0.04099999999994859 0  -0.008999999999999999 0.04299999999995415 0  -0.008434212937853522 0.04225291651494782 0  -0.008999999999999999 0.04249999999995224 0  -0.008999999999999999 0.04199999999995033 0  -0.008434212937853522 0.04275291651494972 0  -0.007868425875707045 0.0425058330299453 0  -0.008249816699198017 0.05835749671693449 0  -0.008080483532295991 0.05789383450280617 0  -0.008624908349599008 0.05817874835846479 0  -0.005 0.05699999999999127 0  -0.005564814814815426 0.05763425925925437 0  -0.005564814814815426 0.05713425925925246 0  -0.006129629629630853 0.05726851851851365 0  -0.005 0.05749999999999318 0  -0.005 0.05799999999999508 0  -0.007812500000000279 0.05881250000000175 0  -0.007487215909092686 0.05955539772727215 0  -0.007906250000003019 0.05940625000000088 0  -0.008000000000005759 0.06 0  -0.007393465909089946 0.05896164772727303 0  -0.006974431818179612 0.0591107954545443 0  -0.008269129548671622 0.01109390078343537 0  -0.008025189774334947 0.0108177837250408 0  -0.008390624999999135 0.01027083333331175 0  -0.008634564774335812 0.01054695039170632 0  -0.008999999999999999 0.009999999999977279 0  -0.008269129548671525 0.007906099216521786 0  -0.00802518977433494 0.008182216274916528 0  -0.008390624999999177 0.008729166666645676 0  -0.008634564774335763 0.008453049608250935 0  -0.008999999999999999 0.008999999999980083 0  -0.008269129548669827 0.04709390078342088 0  -0.008025189774335762 0.04681778372502312 0  -0.008390625000000849 0.04627083333329277 0  -0.008634564774334913 0.04654695039169052 0  -0.008999999999999999 0.04599999999996016 0  -0.008273872863797757 0.03191632356681653 0  -0.008025109529492163 0.03218405924682916 0  -0.008388173097593283 0.03272589746338432 0  -0.007776346195186568 0.03245179492684179 0  -0.008636936431898879 0.03245816178337169 0  -0.008999999999999999 0.03299999999992685 0  -0.008017414784897241 0.03353452586113938 0  -0.007896880490041905 0.03299316039399058 0  -0.00850870739244862 0.03326726293053311 0  -0.007057671392325 0.03137590312127503 0  -0.007417008793755784 0.03191384902405841 0  -0.007160048097594804 0.03223839746338272 0  -0.00680071069616402 0.03170045156059935 0  -0.006543750000003041 0.03202499999992366 0  -0.007883928571428122 0.00949999999997868 0  -0.007832589285713197 0.01002083333331245 0  -0.00844196428571406 0.009749999999977979 0  -0.007832589285713239 0.008979166666644976 0  -0.00844196428571406 0.009249999999979382 0  -0.007040819314031163 0.03285586844587998 0  -0.007408582754608865 0.03265383168636089 0  -0.006792284657017102 0.03244043422290183 0  -0.005872353521460591 0.05810919245179558 0  -0.006000991575545722 0.05768885548515462 0  -0.005436176760730296 0.05805459622589533 0  -0.00786502184884123 0.04771008739533377 0  -0.007823135924421465 0.04712587703097956 0  -0.007452265955932792 0.04769238077179296 0  -0.007865021848844505 0.007289912604609198 0  -0.00782313592442143 0.007874122968960234 0  -0.007452265955936481 0.007307619228155863 0  -0.007865021848844829 0.01171008739534793 0  -0.007823135924421552 0.01112587703099708 0  -0.007452265955936822 0.01169238077180085 0  -0.008184288543895116 0.02249999999993832 0  -0.007988733012405148 0.02298711832054615 0  -0.007383909739089816 0.02298711832054615 0  -0.007793177480915178 0.02347423664115397 0  -0.007579465270579786 0.02249999999993833 0  -0.006974641997264455 0.02249999999993833 0  -0.007988733012405137 0.02201288167933051 0  -0.007383909739089808 0.02201288167933051 0  -0.007793177480915159 0.02152576335872269 0  -0.005819248789178329 0.02649
[...]
<PointData  Vectors="f_23"> 
<DataArray  type="Float64"  Name="f_23"  NumberOfComponents="3" format="ascii">0.0000000000000000e+00 0.0000000000000000e+00 0.0000000000000000e+00  2.0064583474196425e-10 -7.2396096458321436e-04 0.0000000000000000e+00  3.8097483083868932e-10 -1.0537067325908046e-03 0.0000000000000000e+00  2.3090495841373698e-10 -1.0878897056137849e-03 0.0000000000000000e+00  0.0000000000000000e+00 0.0000000000000000e+00 0.0000000000000000e+00  0.0000000000000000e+00 0.0000000000000000e+00 0.0000000000000000e+00  0.0000000000000000e+00 0.0000000000000000e+00 0.0000000000000000e+00  -3.2111198669691759e-10 -7.5787484880077605e-04 0.0000000000000000e+00  0.0000000000000000e+00 0.0000000000000000e+00 0.0000000000000000e+00  0.0000000000000000e+00 0.0000000000000000e+00 0.0000000000000000e+00  -1.2894647211679358e-11 -1.0441620157328943e-03 0.0000000000000000e+00  -4.1780042661778953e-10 -1.0833931512347825e-03 0.0000000000000000e+00  0.0000000000000000e+00 0.0000000000000000e+00 0.0000000000000000e+00  1.1760979653530620e-09 -7.2016198913437367e-04 0.0000000000000000e+00  -3.7732737104389502e-08 -1.0531982718817307e-03 0.0000000000000000e+00  -3.9750741804843642e-08 -1.0859552901988866e-03 0.0000000000000000e+00  0.0000000000000000e+00 0.0000000000000000e+00 0.0000000000000000e+00  0.0000000000000000e+00 0.0000000000000000e+00 0.0000000000000000e+00  -3.1946602341928562e-10 -1.1221549254418043e-03 0.0000000000000000e+00  -6.3230100630529908e-10 -1.1235325541816030e-03 0.0000000000000000e+00  7.4910181601009863e-10 -1.1237885651237689e-03 0.0000000000000000e+00  1.2696022739893771e-09 -1.1237061389506844e-03 0.0000000000000000e+00  -1.1851089920253959e-09 -1.1234961006564722e-03 0.0000000000000000e+00  -1.0988078324978308e-09 -1.1181842501918539e-03 0.0000000000000000e+00  2.8577491237299174e-10 -1.1222331795401332e-03 0.0000000000000000e+00  1.7731830103833903e-10 -1.1235572582434005e-03 0.0000000000000000e+00  -4.5271658424999736e-10 -1.1237938414667165e-03 0.0000000000000000e+00  -3.4687840205610036e-10 -1.1237411447361347e-03 0.0000000000000000e+00  8.9803348617245321e-10 -1.1235299856006112e-03 0.0000000000000000e+00  -1.2685708302591352e-10 -1.1179084323979934e-03 0.0000000000000000e+00  -3.2609888174906448e-10 -1.1222447132102395e-03 0.0000000000000000e+00  -1.0670991242710869e-09 -1.1235493110626188e-03 0.0000000000000000e+00  -5.8998500676327943e-10 -1.1237965390877261e-03 0.0000000000000000e+00  -6.7528797603875597e-10 -1.1237040881602013e-03 0.0000000000000000e+00  -6.5585090414029430e-10 -1.1235985802363338e-03 0.0000000000000000e+00  -1.4640268397444985e-09 -1.1187023488947881e-03 0.0000000000000000e+00  0.0000000000000000e+00 0.0000000000000000e+00 0.0000000000000000e+00  4.6359167418221917e-10 -7.4781832218824475e-04 0.0000000000000000e+00  0.0000000000000000e+00 0.0000000000000000e+00 0.0000000000000000e+00  0.0000000000000000e+00 0.0000000000000000e+00 0.0000000000000000e+00  9.5186854772538576e-10 -1.0547755713430568e-03 0.0000000000000000e+00  5.3162028949733498e-10 -1.0862902851454181e-03 0.0000000000000000e+00  0.0000000000000000e+00 0.0000000000000000e+00 0.0000000000000000e+00  6.6364964366531828e-10 -7.5703922948909942e-04 0.0000000000000000e+00  1.0090846480538409e-09 -1.0545546899737369e-03 0.0000000000000000e+00  1.3058735326422421e-09 -1.0882983709436954e-03 0.0000000000000000e+00  0.0000000000000000e+00 0.0000000000000000e+00 0.0000000000000000e+00  0.0000000000000000e+00 0.0000000000000000e+00 0.0000000000000000e+00  0.0000000000000000e+00 0.0000000000000000e+00 0.0000000000000000e+00  4.0639966046586406e-11 -7.4477022926271370e-04 0.0000000000000000e+00  0.0000000000000000e+00 0.0000000000000000e+00 0.0000000000000000e+00  0.0000000000000000e+00 0.0000000000000000e+00 0.0000000000000000e+00  3.5673734652421631e-10 -1.0546736826920042e-03 0.0000000000000000e+00  1.0320228589496188e-10 -1.0865360321649926e-03 0.0000000000000000e+00  0.0000000000000000e+00 0.0000000000000000e+00 0.0000000000000000e+00  7.8838923034486983e-11 -7.5301294849326847e-04 0.0000000000000000e+00  -4.3806441709161712e-10 -1.0543019431816338e-03 0.0000000000000000e+00  -5.6680030854320878e-10 -1.0870509179609317e-03 0.0000000000000000e+00  0.0000000000000000e+00 0.0000000000000000e+00 0.0000000000000000e+00  0.0000000000000000e+00 0.0000000000000000e+00 0.0000000000000000e+00  0.0000000000000000e+00 0.0000000000000000e+00 0.0000000000000000e+00  9.1630727835825937e-10 -7.4715775134121670e-04 0.0000000000000000e+00  0.0000000000000000e+00 0.0000000000000000e+00 0.0000000000000000e+00  0.0000000000000000e+00 0.0000000000000000e+00 0.0000000000000000e+00  1.0442098930098323e-09 -1.0527463822982859e-03 0.0000000000000000e+00  1.2151949902905215e-09 -1.0848584149826834e-03 0.0000000000000000e+00  0.0000000000000000e+00 0.0000000000000000e+00 0.0000000000000000e+00  6.9769492303250241e-11 -7.4754785734927815e-04 0.0000000000000000e+00  0.0000000000000000e+00 0.0000000000000000e+00 0.0000000000000000e+00  0.0000000000000000e+00 0.0000000000000000e+00 0.0000000000000000e+00  -3.2853249934163974e-10 -1.0531458707832054e-03 0.0000000000000000e+00  -2.0133490973946922e-10 -1.0869175266730155e-03 0.0000000000000000e+00  0.0000000000000000e+00 0.0000000000000000e+00 0.0000000000000000e+00  -5.5267303964250113e-10 -7.7926550881131818e-04 0.0000000000000000e+00  -3.5761124822340061e-10 -1.0464998749397025e-03 0.0000000000000000e+00  -1.0702871107968590e-09 -1.0852624695633106e-03 0.0000000000000000e+00  0.0000000000000000e+00 0.0000000000000000e+00 0.0000000000000000e+00  0.0000000000000000e+00 0.0000000000000000e+00 0.0000000000000000e+00  0.0000000000000000e+00 0.0000000000000000e+00 0.0000000000000000e+00  1.9590678061705707e-10 -7.3042255519277684e-04 0.0000000000000000e+00  0.0000000000000000e+00 0.0000000000000000e+00 0.0000000000000000e+00  0.0000000000000000e+00 0.0000000000000000e+00 0.0000000000000000e+00  8.3407805730862924e-10 -1.0520097261939251e-03 0.0000000000000000e+00  5.7019115544267868e-10 -1.0851704907107905e-03 0.0000000000000000e+00  0.0000000000000000e+00 0.0000000000000000e+00 0.0000000000000000e+00  -8.3320537741353176e-11 -7.5279668442733590e-04 0.0000000000000000e+00  2.9210373639743592e-10 -1.0550953270905797e-03 0.0000000000000000e+00  3.5280065864104577e-11 -1.0871934834594450e-03 0.0000000000000000e+00  0.0000000000000000e+00 0.0000000000000000e+00 0.0000000000000000e+00  0.0000000000000000e+00 0.0000000000000000e+00 0.0000000000000000e+00  0.0000000000000000e+00 0.0000000000000000e+00 0.0000000000000000e+00  -4.5848334947662984e-10 -7.2665633874727134e-04 0.0000000000000000e+00  -6.2373368825499092e-10 -1.0443388553777913e-03 0.0000000000000000e+00  -5.5401209343709740e-10 -1.0824301107561875e-03 0.0000000000000000e+00  0.0000000000000000e+00 0.0000000000000000e+00 0.0000000000000000e+00  0.0000000000000000e+00 0.0000000000000000e+00 0.0000000000000000e+00  0.0000000000000000e+00 0.0000000000000000e+00 0.0000000000000000e+00  1.1341169977481839e-09 -7.4784249401580220e-04 0.0000000000000000e+00  2.7715767470951897e-09 -1.0547952833824866e-03 0.0000000000000000e+00  2.8255126172208847e-09 -1.0864015172743103e-03 0.0000000000000000e+00  0.0000000000000000e+00 0.0000000000000000e+00 0.0000000000000000e+00  0.0000000000000000e+00 0.0000000000000000e+00 0.0000000000000000e+00  0.0000000000000000e+00 0.0000000000000000e+00 0.0000000000000000e+00  1.6462724932621018e-09 -7.5300607830453090e-04 0.0000000000000000e+00  0.0000000000000000e+00 0.0000000000000000e+00 0.0000000000000000e+00  0.0000000000000000e+00 0.0000000000000000e+00 0.0000000000000000e+00  3.4878560584137139e-09 -1.0543060647401716e-03 0.0000000000000000e+00  4.5177708386254171e-09 -1.0870624276336622e-03 0.0000000000000000e+00  0.0000000000000000e+00 0.0000000000000000e+00 0.0000000000000000e+00  4.1390162945974824e-10 -7.4273451950381453e-04 0.0000000000000000e+00  0.0000000000000000e+00 0.0000000000000000e+00 0.0000000000000000e+00  0.0000000000000000e+00 0.0000000000000000e+00 0.0000000000000000e+00  9.9083598391312631e-10 -1.0532955289107740e-03 0.0000000000000000e+00  2.0329581274390785e-10 -1.0852610062682757e-03 0.0000000000000000e+00  0.0000000000000000e+00 0.0000000000000000e+00 0.0000000000000000e+00  1.5550346220008633e-09 -7.4997275195144589e-04 0.0000000000000000e+00  2.4119261904249886e-09 -1.0460901295662164e-03 0.0000000000000000e+00  1.2045756276900218e-09 -1.0834114105542686e-03 0.0000000000000000e+00  0.0000000000000000e+00 0.0000000000000000e+00 0.0000000000000000e+00  0.0000000000000000e+00 0.0000000000000000e+00 0.0000000000000000e+00  0.0000000000000000e+00 0.0000000000000000e+00 0.0000000000000000e+00  -6.3468705611367857e-11 -7.4751172427460564e-04 0.0000000000000000e+00  0.0000000000000000e+00 0.0000000000000000e+00 0.0000000000000000e+00  0.0000000000000000e+00 0.0000000000000000e+00 0.0000000000000000e+00  -1.5552608946517721e-10 -1.0546165564141172e-03 0.0000000000000000e+00  -3.4153978940766753e-10 -1.0855624208738399e-03 0.0000000000000000e+00  0.0000000000000000e+00 0.0000000000000000e+00 0.0000000000000000e+00  3.6157021995802639e-09 -7.2667337356682401e-04 0.0000000000000000e+00  -6.2862691022907350e-09 -1.0520581849908632e-03 0.0000000000000000e+00  -4.6133740423213822e-10 -1.0857354644767810e-03 0.0000000000000000e+00  0.0000000000000000e+00 0.0000000000000000e+00 0.0000000000000000e+00  0.0000000000000000e+00 0.0000000000000000e+00 0.0000000000000000e+00  0.0000000000000000e+00 0.0000000000000000e+00 0.0000000000000000e+00  -5.3919908233776967e-10 -7.4237804971932731e-04 0.0000000000000000e+00  0.0000000000000000e+00 0.0000000000000000e+00 0.0000000000000000e+00  0.0000000000000000e+00 0.0000000000000000e+00 0.0000000000000000e+00  5.6306251734045414e-10 -1.0455325105772086e-03 0.0000000000000000e+00  1.1894547465781597e-09 -1.0837090172608694e-03 0.0000000000000000e+00  0.0000000000000000e+00 0.0000000000000000e+00 0.0000000000000000e+00  4.1666172890888233e-10 -7.0140572596464321e-04 0.0000000000000000e+00  0.0000000000000000e+00 0.0000000000000000e+00 0.0000000000000000e+00  0.0000000000000000e+00 0.0000000000000000e+00 0.0000000000000000e+00  2.7539650332976719e-10 -1.0506532550049767e-03 0.0000000000000000e+00  7.2421704438944535e-10 -1.0840130745602789e-03 0.0000000000000000e+00  0.0000000000000000e+00 0.0000000000000000e+00 0.0000000000000000e+00  5.5804840431856373e-10 -7.6775035177761635e-04 0.0000000000000000e+00  1.6825080245573548e-09 -1.0533324971256223e-03 0.0000000000000000e+00  8.4090863511004580e-10 -1.0884239819495961e-03 0.0000000000000000e+00  0.0000000000000000e+00 0.0000000000000000e+00 0.0000000000000000e+00  0.0000000000000000e+00 0.0000000000000000e+00 0.0000000000000000e+00  0.0000000000000000e+00 0.0000000000000000e+00 0.0000000000000000e+00  -4.4417730386723622e-10 -7.6766975172246565e-04 0.0000000000000000e+00  0.0000000000000000e+00 0.0000000000000000e+00 0.0000000000000000e+00  0.0000000000000000e+00 0.0000000000000000e+00 0.0000000000000000e+00  -1.8454765762009828e-10 -1.0531936603782011e-03 0.0000000000000000e+00  -2.7067148804372982e-10 -1.0878998775789178e-03 0.0000000000000000e+00  2.7096854234135756e-08 -1.0462137471709890e-03 0.0000000000000000e+00  3.4130164509704230e-09 -1.1021085057100744e-03 0.0000000000000000e+00  2.6271707165541301e-08 -7.3114087657301277e-04 0.0000000000000000e+00  0.0000000000000000e+00 0.0000000000000000e+00 0.0000000000000000e+00  5.3862738004840787e-08 -7.0742741898160673e-04 0.0000000000000000e+00  4.9173740120428118e-08 -1.0502045992036768e-03 0.0000000000000000e+00  7.1141019698963188e-08 -1.0813946095059258e-03 0.0000000000000000e+00  0.0000000000000000e+00 0.0000000000000000e+00 0.0000000000000000e+00  0.0000000000000000e+00 0.0000000000000000e+00 0.0000000000000000e+00  3.1773576596036579e-08 -1.1203077404211509e-03 0.0000000000000000e+00  1.7461122203857910e-08 -1.1236275907589603e-03 0.0000000000000000e+00  -4.6393239988271357e-09 -1.1182888992909430e-03 0.0000000000000000e+00  -8.2426944062353949e-09 -1.1185093719154418e-03 0.0000000000000000e+00  2.0707294198253275e-08 -1.1236626051696964e-03 0.0000000000000000e+00  8.1778023145381278e-08 -1.1228836844557328e-03 0.0000000000000000e+00  -1.5465353250031092e-09 -1.0347450198855850e-03 0.0000000000000000e+00  -2.4047847257908797e-09 -1.1061485647401934e-03 0.0000000000000000e+00  -2.1401887836975604e-09 -1.0669109962059119e-03 0.0000000000000000e+00  -1.0677094417526872e-09 -6.7600158438021140e-04 0.0000000000000000e+00  0.0000000000000000e+00 0.0000000000000000e+00 0.0000000000000000e+00  -3.4430214647209863e-10 -1.0329428761169804e-03 0.0000000000000000e+00  -7.6794491639439853e-10 -1.1068273230844846e-03 0.0000000000000000e+00  -1.7624499407043575e-09 -1.0598080077444312e-03 0.0000000000000000e+00  -9.9150436453106784e-10 -6.8606371573432174e-04 0.0000000000000000e+00  0.0000000000000000e+00 0.0000000000000000e+00 0.0000000000000000e+00  -1.8476471900358356e-09 -1.0330762756974110e-03 0.0000000000000000e+00  -2.0061484467122520e-09 -1.1067913817923568e-03 0.0000000000000000e+00  -1.1507280567275995e-09 -1.0602640067590495e-03 0.0000000000000000e+00  -1.0159726428027068e-09 -6.8541899996954903e-04 0.0000000000000000e+00  0.0000000000000000e+00 0.0000000000000000e+00 0.0000000000000000e+00  1.5138640882970781e-10 -1.0403814000907760e-03 0.0000000000000000e+00  2.0546902982969960e-10 -1.1071947247156186e-03 0.0000000000000000e+00  6.7167108399672307e-10 -1.0675677384643684e-03 0.0000000000000000e+00  4.6293050121829180e-10 -1.1186731990227893e-03 0.0000000000000000e+00  9.2908929446824408e-11 -6.7899817255332882e-04 0.0000000000000000e+00  0.0000000000000000e+00 0.0000000000000000e+00 0.0000000000000000e+00  1.5615106107169920e-09 -1.0808946502712557e-03 0.0000000000000000e+00  1.1083162296409659e-09 -1.1113125618458651e-03 0.0000000000000000e+00  9.1072154054965931e-10 -6.7536886773416380e-04 0.0000000000000000e+00  1.2193620494032080e-10 -1.1232713346993376e-03 0.0000000000000000e+00  -2.3391000383529618e-11 -1.1223478368840316e-03 0.0000000000000000e+00  3.3941303737814482e-10 -1.1235630001773195e-03 0.0000000000000000e+00  3.1277541244054600e-10 -1.1238299868178631e-03 0.0000000000000000e+00  8.0980689831977983e-10 -1.1217465086977277e-03 0.0000000000000000e+00  -2.1773532711183858e-09 -1.0654071439200751e-03 0.0000000000000000e+00  -2.5216305354332475e-09 -1.1096938312969901e-03 0.0000000000000000e+00  -2.1437576569608507e-09 -6.7018643134145151e-04 0.0000000000000000e+00  -1.1406777657189342e-09 -1.1157534427946472e-03 0.0000000000000000e+00  -3.3448757747713363e-09 -1.0159947081821445e-03 0.0000000000000000e+00  8.8992035389932379e-10 -1.1231485036431955e-03 0.0000000000000000e+00  4.8733566456930765e-10 -1.1237215415155657e-03 0.0000000000000000e+00  6.8522912591995269e-10 -1.1238544312270370e-03 0.0000000000000000e+00  1.0468096039277399e-07 -1.0614442562839673e-03 0.0000000000000000e+00  1.3039240363701274e-07 -1.0911317271787384e-03 0.0000000000000000e+00  5.0719597048805331e-08 -1.0289201615185962e-03 0.0000000000000000e+00  -1.1385543485981509e-09 -1.1183783692474284e-03 0.0000000000000000e+00  -1.5524428849400354e-09 -1.1172690263271949e-03 0.0000000000000000e+00  1.5929034903982693e-10 -1.1235588440450463e-03 0.0000000000000000e+00  2.1423976701001220e-10 -1.1188614944698434e-03 0.0000000000000000e+00  1.7054837961040084e-10 -1.1172755768658811e-03 0.0000000000000000e+00  4.5630800661038536e-10 -1.1236291498500047e-03 0.0000000000000000e+00  -1.0370668333203832e-09 -1.1184117181560725e-03 0.0000000000000000e+00  -1.3573720062902020e-09 -1.1176068305763767e-03 0.0000000000000000e+00  -9.6627842659042948e-10 -1.1235623404174629e-03 0.0000000000000000e+00  1.1994451453273338e-09 -1.0746284349699223e-03 0.0000000000000000e+00  6.4904485261090374e-10 -1.1173599525197467e-03 0.0000000000000000e+00  9.1513478244623220e-10 -1.1203873956557246e-03 0.0000000000000000e+00  -4.6405899573664692e-11 -1.1209547773484336e-03 0.0000000000000000e+00  1.3702117637830912e-09 -1.1202427317788283e-03 0.0000000000000000e+00  1.5410124525064135e-09 -1.1201989250787337e-03 0.0000000000000000e+00  1.7954847617744991e-09 -1.1173666339656036e-03 0.0000000000000000e+00  1.8315231153972473e-09 -1.1204173564127048e-03 0.0000000000000000e+00  1.6262800696596367e-09 -1.1209745683066741e-03 0.0000000000000000e+00  9.8306272758853347e-10 -1.0763861602614982e-03 0.0000000000000000e+00  6.8088140736225659e-10 -1.1183823671311766e-03 0.0000000000000000e+00  1.8656993258868518e-10 -1.1200629170680565e-03 0.0000000000000000e+00  1.1197473537650977e-10 -1.1179107485382138e-03 0.0000000000000000e+00  7.6218026450588861e-10 -1.1203280403383950e-03 0.0000000000000000e+00  -5.5765379900736731e-11 -1.1206982742564355e-03 0.0000000000000000e+00  -5.7127846084884838e-10 -1.0764037274057006e-03 0.0000000000000000e+00  -1.2178411464831483e-09 -1.1183967451437900e-03 0.0000000000000000e+00  -8.2113001963286366e-10 -1.1200886803917698e-03 0.0000000000000000e+00  -6.8639836306730386e-10 -1.1179862840718072e-03 0.0000000000000000e+00  -6.1427580971565731e-10 -1.1203390315512424e-03 0.0000000000000000e+00  -5.4205473557230704e-10 -1.1207664812339035e-03 0.0000000000000000e+00  1.8047766504389653e-09 -1.1183622306832751e-03 0.0000000000000000e+00  9.3336735711823146e-10 -1.1200746521326020e-03 0.0000000000000000e+00  1.3914246368338071e-09 -1.1178627555628446e-03 0.0000000000000000e+00  -2.1291003199605896e-10 -1.1183683799275432e-03 0.0000000000000000e+00  -3.0713892602663733e-10 -1.1200791429657440e-03 0.0000000000000000e+00  5.0906716951836898e-11 -1.1178685486077048e-03 0.0000000000000000e+00  9.6151394908486624e-10 -1.0771317368006737e-03 0.0000000000000000e+00  1.2494919247567189e-09 -1.1184654952646877e-03 0.0000000000000000e+00  1.2243945716922972e-09 -1.1201235357575850e-03 0.0000000000000000e+00  1.3603184230089850e-09 -1.1179859752307925e-03 0.0000000000000000e+00  1.1748203513774753e-09 -1.1203940679269668e-03 0.0000000000000000e+00  1.0846048404872673e-09 -1.1207430779909557e-03 0.0000000000000000e+00  1.0737639510992480e-09 -1.1184405024179838e-03 0.0000000000000000e+00  1.0045947466204258e-09 -1.1200616857830158e-03 0.0000000000000000e+00  8.0791758928541548e-10 -1.1176975971983387e-03 0.0000000000000000e+00  -8.6463195060573272e-10 -1.0770640164782048e-03 0.0000000000000000e+00  -7.4933195548765715e-10 -1.1182892985991746e-03 0.0000000000000000e+00  -6.5202438052925141e-10 -1.1200300290443593e-03 0.0000000000000000e+00  -4.8337189394658117e-10 -1.1162026708799208e-03 0.0000000000000000e+00  -9.8195667072717452e-10 -1.1203848967322589e-03 0.0000000000000000e+00  -6.6506370195521024e-10 -1.1207017016060870e-03 0.0000000000000000e+00  -1.3465023771033058e-09 -1.1184482206194673e-03 0.0000000000000000e+00  -1.0618748807326454e-09 -1.1200612209645024e-03 0.0000000000000000e+00  -1.2423328776073935e-09 -1.1178651200994467e-03 0.0000000000000000e+00  2.3142013802812886e-09 -1.0763755859282526e-03 0.0000000000000000e+00  3.5756727873726996e-09 -1.1183581418665021e-03 0.0000000000000000e+00  3.8427855545201487e-09 -1.1200607028233704e-03 0.0000000000000000e+00  4.2966406234484279e-09 -1.1178437274609408e-03 0.0000000000000000e+00  3.2120653214148158e-09 -1.1203270040273231e-03 0.0000000000000000e+00  3.1676243839428792e-09 -1.1206925062296838e-03 0.0000000000000000e+00  1.7863030385589387e-09 -1.0804788644608605e-03 0.0000000000000000e+00  1.4588966447458110e-09 -1.1136918856924174e-03 0.0000000000000000e+00  9.2856085466881873e-10 -1.1207109777289868e-03 0.0000000000000000e+00  5.2306074618479246e-10 -1.1185682444867764e-03 0.0000000000000000e+00  1.5693159361218655e-09 -1.1203131544703854e-03 0.0000000000000000e+00  9.0130719400996374e-10 -1.1208993157572648e-03 0.0000000000000000e+00  -1.7895732400471268e-09 -1.0763829122125734e-03 0.0000000000000000e+00  -2.2935181615093050e-09 -1.1183620410931221e-03 0.0000000000000000e+00  -1.5302284001472097e-09 -1.1200571598859218e-03 0.0000000000000000e+00  -1.