<?xml version="1.0"?>
<VTKFile type="UnstructuredGrid"  version="0.1"  >
<UnstructuredGrid>
<Piece  NumberOfPoints="2530" NumberOfCells="4544">
<Points>
<DataArray  type="Float64"  NumberOfComponents="3"  format="ascii">-0.005 0.02899999999991747 0  -0.005567606561449265 0.02972952735170602 0  -0.005567606561449265 0.02922952735170672 0  -0.006135213122898529 0.02945905470349596 0  -0.005 0.02949999999991678 0  -0.005 0.02999999999991609 0  -0.008999999999999999 0.02999999999991609 0  -0.008477881325601233 0.02929081058473642 0  -0.008999999999999999 0.02949999999991678 0  -0.008999999999999999 0.02899999999991747 0  -0.008477881325601233 0.02979081058473573 0  -0.007955762651202469 0.02958162116955536 0  -0.008999999999999999 0.05699999999999127 0  -0.008455575182696982 0.05771508614433647 0  -0.008455575182696982 0.05721508614433456 0  -0.007911150365393967 0.05743017228867785 0  -0.008999999999999999 0.05749999999999318 0  -0.008999999999999999 0.05799999999999508 0  -0.006562500000003323 0.04699999999996404 0  -0.007410380031513026 0.04710817040743875 0  -0.006801005031513838 0.04733733707410809 0  -0.007039510063024354 0.04767467414825214 0  -0.007171875000002511 0.0467708333332947 0  -0.007781250000001699 0.04654166666662536 0  -0.006562499999996975 0.007999999999982715 0  -0.007410380031513406 0.007891829592506899 0  -0.006801005031512716 0.007662662925842622 0  -0.007039510063028456 0.007325325851702528 0  -0.007171874999997664 0.008229166666646992 0  -0.007781249999998355 0.008458333333311269 0  -0.006562499999996577 0.01099999999997411 0  -0.007410380031513544 0.01110817040744999 0  -0.006801005031512696 0.01133733707411394 0  -0.007039510063028815 0.01167467414825377 0  -0.007171874999997425 0.01077083333331016 0  -0.007781249999998272 0.01054166666664622 0  -0.005 0.02399999999993442 0  -0.005590674212597458 0.02326230314954376 0  -0.005 0.02349999999993588 0  -0.005 0.02299999999993733 0  -0.005590674212597458 0.02376230314954231 0  -0.006181348425194916 0.0235246062991502 0  -0.005 0.02099999999994222 0  -0.005564630812322937 0.0217315610722294 0  -0.005564630812322937 0.02123156107223086 0  -0.006129261624645875 0.0214631221445195 0  -0.005 0.02149999999994076 0  -0.005 0.0219999999999393 0  -0.008999999999999999 0.01999999999994686 0  -0.008409325787402531 0.01926230314955595 0  -0.008999999999999999 0.01949999999994807 0  -0.008999999999999999 0.01899999999994928 0  -0.008409325787402531 0.01976230314955475 0  -0.007818651574805061 0.01952460629916263 0  -0.008999999999999999 0.02499999999992978 0  -0.008409325787402541 0.02573769685032071 0  -0.008409325787402541 0.02523769685032191 0  -0.007818651574805081 0.02547539370071405 0  -0.008999999999999999 0.02549999999992857 0  -0.008999999999999999 0.02599999999992736 0  -0.008999999999999999 0.01599999999995916 0  -0.008409325787402512 0.01526230314956849 0  -0.008999999999999999 0.01549999999996053 0  -0.008999999999999999 0.0149999999999619 0  -0.008409325787402512 0.01576230314956713 0  -0.007818651574805024 0.01552460629917509 0  -0.008999999999999999 0.01799999999995125 0  -0.008435915727826615 0.01725427993967504 0  -0.008999999999999999 0.01749999999995307 0  -0.008999999999999999 0.01699999999995488 0  -0.008435915727826615 0.01775427993967323 0  -0.007871831455653231 0.0175085598793952 0  -0.008999999999999999 0.02699999999992539 0  -0.008434239959724898 0.02774706184850321 0  -0.008434239959724898 0.02724706184850503 0  -0.007868479919449797 0.02749412369708466 0  -0.008999999999999999 0.02749999999992357 0  -0.008999999999999999 0.02799999999992175 0  -0.008999999999999999 0.01399999999996497 0  -0.008437765310767197 0.0132645357198448 0  -0.008999999999999999 0.01349999999996647 0  -0.008999999999999999 0.01299999999996796 0  -0.008437765310767197 0.0137645357198433 0  -0.007875530621534396 0.01352907143972163 0  -0.005 0.002999999999993196 0  -0.005590674212597853 0.003737696850384681 0  -0.005590674212597853 0.003237696850385873 0  -0.006181348425195706 0.00347539370077855 0  -0.005 0.003499999999992004 0  -0.005 0.003999999999990813 0  -0.005 0.004999999999989164 0  -0.005559084057905018 0.005728935712846076 0  -0.005559084057905018 0.005228935712846881 0  -0.006118168115810037 0.005457871425704597 0  -0.005 0.00549999999998836 0  -0.005 0.005999999999987554 0  -0.005 0.05299999999997999 0  -0.005590674212599118 0.05373769685037712 0  -0.005590674212599118 0.05323769685037585 0  -0.006181348425198237 0.05347539370077171 0  -0.005 0.05349999999998126 0  -0.005 0.05399999999998254 0  -0.008999999999999999 0.05199999999997907 0  -0.008409325787400907 0.05126230314958195 0  -0.008999999999999999 0.0514999999999778 0  -0.008999999999999999 0.05099999999997653 0  -0.008409325787400907 0.05176230314958322 0  -0.007818651574801817 0.05152460629918738 0  -0.005 0.03699999999993814 0  -0.005590674212599064 0.03626230314954104 0  -0.005 0.03649999999993686 0  -0.005 0.03599999999993558 0  -0.005590674212599064 0.03676230314954232 0  -0.006181348425198127 0.03652460629914649 0  -0.005 0.03799999999993905 0  -0.005590674212599059 0.03873769685033618 0  -0.005590674212599059 0.0382376968503349 0  -0.006181348425198119 0.03847539370073075 0  -0.005 0.03849999999994033 0  -0.005 0.0389999999999416 0  -0.008999999999999999 0.04499999999995907 0  -0.008409325787400921 0.04426230314956281 0  -0.008999999999999999 0.04449999999995852 0  -0.008999999999999999 0.04399999999995796 0  -0.008409325787400921 0.04476230314956336 0  -0.007818651574801844 0.04452460629916766 0  -0.005 0.05499999999998635 0  -0.005561924071815199 0.05574035198473451 0  -0.005561924071815199 0.05524035198473292 0  -0.006123848143630398 0.05548070396947949 0  -0.005 0.05549999999998795 0  -0.005 0.05599999999998954 0  -0.008999999999999999 0.04999999999997271 0  -0.008437330811979935 0.04925705943891855 0  -0.008999999999999999 0.04949999999997112 0  -0.008999999999999999 0.04899999999996952 0  -0.008437330811979935 0.04975705943892015 0  -0.00787466162395987 0.04951411887786759 0  -0.005 0.03499999999993177 0  -0.005554118008684467 0.03427588870688815 0  -0.005 0.03449999999993018 0  -0.005 0.03399999999992859 0  -0.005554118008684467 0.03477588870688975 0  -0.006108236017368934 0.03455177741384772 0  -0.005 0.03999999999994542 0  -0.005565787062146483 0.04074708348495108 0  -0.005565787062146483 0.0402470834849495 0  -0.006131574124292967 0.04049416696995358 0  -0.005 0.04049999999994701 0  -0.005 0.04099999999994859 0  -0.008999999999999999 0.04299999999995415 0  -0.008434212937853522 0.04225291651494782 0  -0.008999999999999999 0.04249999999995224 0  -0.008999999999999999 0.04199999999995033 0  -0.008434212937853522 0.04275291651494972 0  -0.007868425875707045 0.0425058330299453 0  -0.008249816699198017 0.05835749671693449 0  -0.008080483532295991 0.05789383450280617 0  -0.008624908349599008 0.05817874835846479 0  -0.005 0.05699999999999127 0  -0.005564814814815426 0.05763425925925437 0  -0.005564814814815426 0.05713425925925246 0  -0.006129629629630853 0.05726851851851365 0  -0.005 0.05749999999999318 0  -0.005 0.05799999999999508 0  -0.007812500000000279 0.05881250000000175 0  -0.007487215909092686 0.05955539772727215 0  -0.007906250000003019 0.05940625000000088 0  -0.008000000000005759 0.06 0  -0.007393465909089946 0.05896164772727303 0  -0.006974431818179612 0.0591107954545443 0  -0.008269129548671622 0.01109390078343537 0  -0.008025189774334947 0.0108177837250408 0  -0.008390624999999135 0.01027083333331175 0  -0.008634564774335812 0.01054695039170632 0  -0.008999999999999999 0.009999999999977279 0  -0.008269129548671525 0.007906099216521786 0  -0.00802518977433494 0.008182216274916528 0  -0.008390624999999177 0.008729166666645676 0  -0.008634564774335763 0.008453049608250935 0  -0.008999999999999999 0.008999999999980083 0  -0.008269129548669827 0.04709390078342088 0  -0.008025189774335762 0.04681778372502312 0  -0.008390625000000849 0.04627083333329277 0  -0.008634564774334913 0.04654695039169052 0  -0.008999999999999999 0.04599999999996016 0  -0.008273872863797757 0.03191632356681653 0  -0.008025109529492163 0.03218405924682916 0  -0.008388173097593283 0.03272589746338432 0  -0.007776346195186568 0.03245179492684179 0  -0.008636936431898879 0.03245816178337169 0  -0.008999999999999999 0.03299999999992685 0  -0.008017414784897241 0.03353452586113938 0  -0.007896880490041905 0.03299316039399058 0  -0.00850870739244862 0.03326726293053311 0  -0.007057671392325 0.03137590312127503 0  -0.007417008793755784 0.03191384902405841 0  -0.007160048097594804 0.03223839746338272 0  -0.00680071069616402 0.03170045156059935 0  -0.006543750000003041 0.03202499999992366 0  -0.007883928571428122 0.00949999999997868 0  -0.007832589285713197 0.01002083333331245 0  -0.00844196428571406 0.009749999999977979 0  -0.007832589285713239 0.008979166666644976 0  -0.00844196428571406 0.009249999999979382 0  -0.007040819314031163 0.03285586844587998 0  -0.007408582754608865 0.03265383168636089 0  -0.006792284657017102 0.03244043422290183 0  -0.005872353521460591 0.05810919245179558 0  -0.006000991575545722 0.05768885548515462 0  -0.005436176760730296 0.05805459622589533 0  -0.00786502184884123 0.04771008739533377 0  -0.007823135924421465 0.04712587703097956 0  -0.007452265955932792 0.04769238077179296 0  -0.007865021848844505 0.007289912604609198 0  -0.00782313592442143 0.007874122968960234 0  -0.007452265955936481 0.007307619228155863 0  -0.007865021848844829 0.01171008739534793 0  -0.007823135924421552 0.01112587703099708 0  -0.007452265955936822 0.01169238077180085 0  -0.008184288543895116 0.02249999999993832 0  -0.007988733012405148 0.02298711832054615 0  -0.007383909739089816 0.02298711832054615 0  -0.007793177480915178 0.02347423664115397 0  -0.007579465270579786 0.02249999999993833 0  -0.006974641997264455 0.02249999999993833 0  -0.007988733012405137 0.02201288167933051 0  -0.007383909739089808 0.02201288167933051 0  -0.007793177480915159 0.02152576335872269 0  -0.005819248789178329 0.02649
[...]
<PointData  Vectors="f_23"> 
<DataArray  type="Float64"  Name="f_23"  NumberOfComponents="3" format="ascii">0.0000000000000000e+00 0.0000000000000000e+00 0.0000000000000000e+00  4.3813146747813797e-10 -1.5818097137892469e-03 0.0000000000000000e+00  8.3252106100555601e-10 -2.3022442095566534e-03 0.0000000000000000e+00  5.0461428230569959e-10 -2.3769858641091105e-03 0.0000000000000000e+00  0.0000000000000000e+00 0.0000000000000000e+00 0.0000000000000000e+00  0.0000000000000000e+00 0.0000000000000000e+00 0.0000000000000000e+00  0.0000000000000000e+00 0.0000000000000000e+00 0.0000000000000000e+00  -7.0126288202291374e-10 -1.6558994926038574e-03 0.0000000000000000e+00  0.0000000000000000e+00 0.0000000000000000e+00 0.0000000000000000e+00  0.0000000000000000e+00 0.0000000000000000e+00 0.0000000000000000e+00  -2.8170651102231383e-11 -2.2813848328012702e-03 0.0000000000000000e+00  -9.1270393342740166e-10 -2.3671543300093521e-03 0.0000000000000000e+00  0.0000000000000000e+00 0.0000000000000000e+00 0.0000000000000000e+00  2.5706655062526272e-09 -1.5735066633836235e-03 0.0000000000000000e+00  -8.2438446603726641e-08 -2.3011303334391536e-03 0.0000000000000000e+00  -8.6847200842321559e-08 -2.3727558496197932e-03 0.0000000000000000e+00  0.0000000000000000e+00 0.0000000000000000e+00 0.0000000000000000e+00  0.0000000000000000e+00 0.0000000000000000e+00 0.0000000000000000e+00  -6.9786194966490904e-10 -2.4518739191210725e-03 0.0000000000000000e+00  -1.3813987164642339e-09 -2.4548848113877019e-03 0.0000000000000000e+00  1.6367322390345200e-09 -2.4554498869569625e-03 0.0000000000000000e+00  2.7739078036558539e-09 -2.4552714952467943e-03 0.0000000000000000e+00  -2.5891137123708479e-09 -2.4548113534142973e-03 0.0000000000000000e+00  -2.4005822691958865e-09 -2.4431800535626631e-03 0.0000000000000000e+00  6.2433146268661867e-10 -2.4520448898042299e-03 0.0000000000000000e+00  3.8742863691428608e-10 -2.4549387853791669e-03 0.0000000000000000e+00  -9.8916637822477633e-10 -2.4554614145951255e-03 0.0000000000000000e+00  -7.5790560036936247e-10 -2.4553479764606997e-03 0.0000000000000000e+00  1.9620768909923966e-09 -2.4548853855956821e-03 0.0000000000000000e+00  -2.7704233202156381e-10 -2.4425774424908604e-03 0.0000000000000000e+00  -7.1241924195244437e-10 -2.4520700890255354e-03 0.0000000000000000e+00  -2.3313385349649211e-09 -2.4549214220563266e-03 0.0000000000000000e+00  -1.2889340279451876e-09 -2.4554673085524473e-03 0.0000000000000000e+00  -1.4752937810002730e-09 -2.4552670144978627e-03 0.0000000000000000e+00  -1.4328957842721990e-09 -2.4550352525849108e-03 0.0000000000000000e+00  -3.1986663441070637e-09 -2.4443120048386838e-03 0.0000000000000000e+00  0.0000000000000000e+00 0.0000000000000000e+00 0.0000000000000000e+00  1.0126000706740342e-09 -1.6339366336544502e-03 0.0000000000000000e+00  0.0000000000000000e+00 0.0000000000000000e+00 0.0000000000000000e+00  0.0000000000000000e+00 0.0000000000000000e+00 0.0000000000000000e+00  2.0798832232563565e-09 -2.3045823376192922e-03 0.0000000000000000e+00  1.1616898174882762e-09 -2.3734948781200678e-03 0.0000000000000000e+00  0.0000000000000000e+00 0.0000000000000000e+00 0.0000000000000000e+00  1.4498499926866608e-09 -1.6540793214082125e-03 0.0000000000000000e+00  2.2047888804543692e-09 -2.3040964621839966e-03 0.0000000000000000e+00  2.8533172615290103e-09 -2.3778782635443248e-03 0.0000000000000000e+00  0.0000000000000000e+00 0.0000000000000000e+00 0.0000000000000000e+00  0.0000000000000000e+00 0.0000000000000000e+00 0.0000000000000000e+00  0.0000000000000000e+00 0.0000000000000000e+00 0.0000000000000000e+00  8.9023375547211250e-11 -1.6272771057941041e-03 0.0000000000000000e+00  0.0000000000000000e+00 0.0000000000000000e+00 0.0000000000000000e+00  0.0000000000000000e+00 0.0000000000000000e+00 0.0000000000000000e+00  7.7916963708037458e-10 -2.3043597293458500e-03 0.0000000000000000e+00  2.2528589504634726e-10 -2.3740317908845952e-03 0.0000000000000000e+00  0.0000000000000000e+00 0.0000000000000000e+00 0.0000000000000000e+00  1.7228935231465991e-10 -1.6452859298330871e-03 0.0000000000000000e+00  -9.5732991225514442e-10 -2.3035475572156659e-03 0.0000000000000000e+00  -1.2386655922517951e-09 -2.3751567256271059e-03 0.0000000000000000e+00  0.0000000000000000e+00 0.0000000000000000e+00 0.0000000000000000e+00  0.0000000000000000e+00 0.0000000000000000e+00 0.0000000000000000e+00  0.0000000000000000e+00 0.0000000000000000e+00 0.0000000000000000e+00  2.0022894211545394e-09 -1.6324934069491305e-03 0.0000000000000000e+00  0.0000000000000000e+00 0.0000000000000000e+00 0.0000000000000000e+00  0.0000000000000000e+00 0.0000000000000000e+00 0.0000000000000000e+00  2.2812573427997104e-09 -2.3001489295671473e-03 0.0000000000000000e+00  2.6549529357906177e-09 -2.3703665027544705e-03 0.0000000000000000e+00  0.0000000000000000e+00 0.0000000000000000e+00 0.0000000000000000e+00  1.5271937731518031e-10 -1.6333423472690417e-03 0.0000000000000000e+00  0.0000000000000000e+00 0.0000000000000000e+00 0.0000000000000000e+00  0.0000000000000000e+00 0.0000000000000000e+00 0.0000000000000000e+00  -7.1796042074896622e-10 -2.3010183691715134e-03 0.0000000000000000e+00  -4.3994992092091307e-10 -2.3748612824462962e-03 0.0000000000000000e+00  0.0000000000000000e+00 0.0000000000000000e+00 0.0000000000000000e+00  -1.2074180623938907e-09 -1.7026398413245002e-03 0.0000000000000000e+00  -7.8126167170535447e-10 -2.2864983033803418e-03 0.0000000000000000e+00  -2.3385179880179833e-09 -2.3712455460311124e-03 0.0000000000000000e+00  0.0000000000000000e+00 0.0000000000000000e+00 0.0000000000000000e+00  0.0000000000000000e+00 0.0000000000000000e+00 0.0000000000000000e+00  0.0000000000000000e+00 0.0000000000000000e+00 0.0000000000000000e+00  4.2832316862197555e-10 -1.5959264419318883e-03 0.0000000000000000e+00  0.0000000000000000e+00 0.0000000000000000e+00 0.0000000000000000e+00  0.0000000000000000e+00 0.0000000000000000e+00 0.0000000000000000e+00  1.8222027477216487e-09 -2.2985358636929960e-03 0.0000000000000000e+00  1.2457097180857897e-09 -2.3710440389890421e-03 0.0000000000000000e+00  0.0000000000000000e+00 0.0000000000000000e+00 0.0000000000000000e+00  -1.8253713853369025e-10 -1.6448134320092526e-03 0.0000000000000000e+00  6.3755259604213974e-10 -2.3052809541033287e-03 0.0000000000000000e+00  7.6497656413789448e-11 -2.3754682057267303e-03 0.0000000000000000e+00  0.0000000000000000e+00 0.0000000000000000e+00 0.0000000000000000e+00  0.0000000000000000e+00 0.0000000000000000e+00 0.0000000000000000e+00  0.0000000000000000e+00 0.0000000000000000e+00 0.0000000000000000e+00  -1.0020686368455974e-09 -1.5876975257552658e-03 0.0000000000000000e+00  -1.3630179555721499e-09 -2.2817760130133531e-03 0.0000000000000000e+00  -1.2105961972578278e-09 -2.3650563164750497e-03 0.0000000000000000e+00  0.0000000000000000e+00 0.0000000000000000e+00 0.0000000000000000e+00  0.0000000000000000e+00 0.0000000000000000e+00 0.0000000000000000e+00  0.0000000000000000e+00 0.0000000000000000e+00 0.0000000000000000e+00  2.4775953720694918e-09 -1.6339894280646330e-03 0.0000000000000000e+00  6.0556757212933195e-09 -2.3046254152403254e-03 0.0000000000000000e+00  6.1734752720511770e-09 -2.3737379038361790e-03 0.0000000000000000e+00  0.0000000000000000e+00 0.0000000000000000e+00 0.0000000000000000e+00  0.0000000000000000e+00 0.0000000000000000e+00 0.0000000000000000e+00  0.0000000000000000e+00 0.0000000000000000e+00 0.0000000000000000e+00  3.5968998527750146e-09 -1.6452709364262114e-03 0.0000000000000000e+00  0.0000000000000000e+00 0.0000000000000000e+00 0.0000000000000000e+00  0.0000000000000000e+00 0.0000000000000000e+00 0.0000000000000000e+00  7.6200303300926300e-09 -2.3035565505742351e-03 0.0000000000000000e+00  9.8702554436767084e-09 -2.3751818691289204e-03 0.0000000000000000e+00  0.0000000000000000e+00 0.0000000000000000e+00 0.0000000000000000e+00  9.0405716756640898e-10 -1.6228294505370913e-03 0.0000000000000000e+00  0.0000000000000000e+00 0.0000000000000000e+00 0.0000000000000000e+00  0.0000000000000000e+00 0.0000000000000000e+00 0.0000000000000000e+00  2.1650236284971227e-09 -2.3013487149334167e-03 0.0000000000000000e+00  4.4426140961299006e-10 -2.3712460912751671e-03 0.0000000000000000e+00  0.0000000000000000e+00 0.0000000000000000e+00 0.0000000000000000e+00  3.3972737922806171e-09 -1.6386436540850274e-03 0.0000000000000000e+00  5.2697271936775568e-09 -2.2856062401955717e-03 0.0000000000000000e+00  2.6318024073347766e-09 -2.3672050636695304e-03 0.0000000000000000e+00  0.0000000000000000e+00 0.0000000000000000e+00 0.0000000000000000e+00  0.0000000000000000e+00 0.0000000000000000e+00 0.0000000000000000e+00  0.0000000000000000e+00 0.0000000000000000e+00 0.0000000000000000e+00  -1.3844304659801721e-10 -1.6332667734048124e-03 0.0000000000000000e+00  0.0000000000000000e+00 0.0000000000000000e+00 0.0000000000000000e+00  0.0000000000000000e+00 0.0000000000000000e+00 0.0000000000000000e+00  -3.4004668370359984e-10 -2.3042349204546054e-03 0.0000000000000000e+00  -7.4641977093110087e-10 -2.3719046274545811e-03 0.0000000000000000e+00  0.0000000000000000e+00 0.0000000000000000e+00 0.0000000000000000e+00  7.8988363116072457e-09 -1.5877351072218914e-03 0.0000000000000000e+00  -1.3734757297529062e-08 -2.2986417058267683e-03 0.0000000000000000e+00  -1.0086429207702850e-09 -2.3722783583897409e-03 0.0000000000000000e+00  0.0000000000000000e+00 0.0000000000000000e+00 0.0000000000000000e+00  0.0000000000000000e+00 0.0000000000000000e+00 0.0000000000000000e+00  0.0000000000000000e+00 0.0000000000000000e+00 0.0000000000000000e+00  -1.1777961829429400e-09 -1.6220470762107924e-03 0.0000000000000000e+00  0.0000000000000000e+00 0.0000000000000000e+00 0.0000000000000000e+00  0.0000000000000000e+00 0.0000000000000000e+00 0.0000000000000000e+00  1.2301419502776697e-09 -2.2843843796397593e-03 0.0000000000000000e+00  2.5987350186583952e-09 -2.3678510534773881e-03 0.0000000000000000e+00  0.0000000000000000e+00 0.0000000000000000e+00 0.0000000000000000e+00  9.1005671841284092e-10 -1.5325289080871905e-03 0.0000000000000000e+00  0.0000000000000000e+00 0.0000000000000000e+00 0.0000000000000000e+00  0.0000000000000000e+00 0.0000000000000000e+00 0.0000000000000000e+00  6.0179042050027403e-10 -2.2955711783849571e-03 0.0000000000000000e+00  1.5824054335815845e-09 -2.3685140172266784e-03 0.0000000000000000e+00  0.0000000000000000e+00 0.0000000000000000e+00 0.0000000000000000e+00  1.2191418268053762e-09 -1.6774813197923458e-03 0.0000000000000000e+00  3.6761620504215115e-09 -2.3014263404837103e-03 0.0000000000000000e+00  1.8374910534569383e-09 -2.3781528789748024e-03 0.0000000000000000e+00  0.0000000000000000e+00 0.0000000000000000e+00 0.0000000000000000e+00  0.0000000000000000e+00 0.0000000000000000e+00 0.0000000000000000e+00  0.0000000000000000e+00 0.0000000000000000e+00 0.0000000000000000e+00  -9.7034994647710751e-10 -1.6773052426529492e-03 0.0000000000000000e+00  0.0000000000000000e+00 0.0000000000000000e+00 0.0000000000000000e+00  0.0000000000000000e+00 0.0000000000000000e+00 0.0000000000000000e+00  -4.0338603398225389e-10 -2.3011229987898213e-03 0.0000000000000000e+00  -5.9163279403837699e-10 -2.3770078046172829e-03 0.0000000000000000e+00  5.9203812351123795e-08 -2.2858952068555210e-03 0.0000000000000000e+00  7.4579378080483612e-09 -2.4080326611969631e-03 0.0000000000000000e+00  5.7400637785860425e-08 -1.5974703117916547e-03 0.0000000000000000e+00  0.0000000000000000e+00 0.0000000000000000e+00 0.0000000000000000e+00  1.1768096532136949e-07 -1.5456865709462047e-03 0.0000000000000000e+00  1.0743517206019900e-07 -2.2945923286900260e-03 0.0000000000000000e+00  1.5543038211066601e-07 -2.3627948291774217e-03 0.0000000000000000e+00  0.0000000000000000e+00 0.0000000000000000e+00 0.0000000000000000e+00  0.0000000000000000e+00 0.0000000000000000e+00 0.0000000000000000e+00  6.9420318953836031e-08 -2.4478172750587086e-03 0.0000000000000000e+00  3.8151221333788304e-08 -2.4550893752359410e-03 0.0000000000000000e+00  -1.0135774812075133e-08 -2.4433992962029842e-03 0.0000000000000000e+00  -1.8008261518753211e-08 -2.4438730252600311e-03 0.0000000000000000e+00  4.5243192423071833e-08 -2.4551695535663738e-03 0.0000000000000000e+00  1.7867348219877264e-07 -2.4534746199301283e-03 0.0000000000000000e+00  -3.3788390927151262e-09 -2.2608359610557325e-03 0.0000000000000000e+00  -5.2544054840945854e-09 -2.4168646422173213e-03 0.0000000000000000e+00  -4.6759066626659442e-09 -2.3310983647609846e-03 0.0000000000000000e+00  -2.3323382750721944e-09 -1.4769995734347245e-03 0.0000000000000000e+00  0.0000000000000000e+00 0.0000000000000000e+00 0.0000000000000000e+00  -7.5226398388129366e-10 -2.2568986063872076e-03 0.0000000000000000e+00  -1.6782015080705726e-09 -2.4183476052187570e-03 0.0000000000000000e+00  -3.8504700711591277e-09 -2.3155796385159280e-03 0.0000000000000000e+00  -2.1660595821881219e-09 -1.4989835179883436e-03 0.0000000000000000e+00  0.0000000000000000e+00 0.0000000000000000e+00 0.0000000000000000e+00  -4.0368384277475526e-09 -2.2571900583229281e-03 0.0000000000000000e+00  -4.3834749625674670e-09 -2.4182690803094455e-03 0.0000000000000000e+00  -2.5139999870603572e-09 -2.3165759025869873e-03 0.0000000000000000e+00  -2.2195576100073024e-09 -1.4975749139816245e-03 0.0000000000000000e+00  0.0000000000000000e+00 0.0000000000000000e+00 0.0000000000000000e+00  3.3080534184883774e-10 -2.2731498896571625e-03 0.0000000000000000e+00  4.4852996266641058e-10 -2.4191503179108848e-03 0.0000000000000000e+00  1.4675369088897304e-09 -2.3325335395122226e-03 0.0000000000000000e+00  1.0113573569883443e-09 -2.4442486580275122e-03 0.0000000000000000e+00  2.0347352691503955e-10 -1.4835462487090949e-03 0.0000000000000000e+00  0.0000000000000000e+00 0.0000000000000000e+00 0.0000000000000000e+00  3.4117310084090276e-09 -2.3616901406915435e-03 0.0000000000000000e+00  2.4210553683252043e-09 -2.4281580221172708e-03 0.0000000000000000e+00  1.9900726686661051e-09 -1.4756348384967455e-03 0.0000000000000000e+00  2.6638554352977353e-10 -2.4543214481601897e-03 0.0000000000000000e+00  -5.1122303582658732e-11 -2.4522961750654011e-03 0.0000000000000000e+00  7.4147288967219440e-10 -2.4549576911962216e-03 0.0000000000000000e+00  6.8330437180297801e-10 -2.4555403802636227e-03 0.0000000000000000e+00  1.7692090006155194e-09 -2.4509808559914680e-03 0.0000000000000000e+00  -4.7569574941969025e-09 -2.3278640670067398e-03 0.0000000000000000e+00  -5.5098913867168123e-09 -2.4246263422336000e-03 0.0000000000000000e+00  -4.6833586084004474e-09 -1.4643209255310668e-03 0.0000000000000000e+00  -2.4918973476657650e-09 -2.4378654920075913e-03 0.0000000000000000e+00  -7.3081686303089539e-09 -2.2198490754093900e-03 0.0000000000000000e+00  1.9441620379161811e-09 -2.4540531585454171e-03 0.0000000000000000e+00  1.0645568692753823e-09 -2.4552977796538575e-03 0.0000000000000000e+00  1.4969687866432163e-09 -2.4555936341191598e-03 0.0000000000000000e+00  2.2871058071999616e-07 -2.3191840363381553e-03 0.0000000000000000e+00  2.8488437678458956e-07 -2.3840579433825285e-03 0.0000000000000000e+00  1.1081331476651514e-07 -2.2480725153568859e-03 0.0000000000000000e+00  -2.4875332719586904e-09 -2.4435980252623113e-03 0.0000000000000000e+00  -3.3917562967121510e-09 -2.4411774625245782e-03 0.0000000000000000e+00  3.4804589745082564e-10 -2.4549406404638960e-03 0.0000000000000000e+00  4.6813190138823789e-10 -2.4446535659785420e-03 0.0000000000000000e+00  3.7270350739877680e-10 -2.4411917747058347e-03 0.0000000000000000e+00  9.9696452917564871e-10 -2.4550942459001406e-03 0.0000000000000000e+00  -2.2656840413830325e-09 -2.4436708865272190e-03 0.0000000000000000e+00  -2.9655400498035282e-09 -2.4419155033884236e-03 0.0000000000000000e+00  -2.1110538582326863e-09 -2.4549482793060616e-03 0.0000000000000000e+00  2.6207944321920370e-09 -2.3479832362572266e-03 0.0000000000000000e+00  1.4181965069701031e-09 -2.4413627539366101e-03 0.0000000000000000e+00  1.9997026235967787e-09 -2.4480141488122543e-03 0.0000000000000000e+00  -1.0106108607036461e-10 -2.4492323148482035e-03 0.0000000000000000e+00  2.9938769135953861e-09 -2.4476896925125450e-03 0.0000000000000000e+00  3.3671485665356840e-09 -2.4476089120017731e-03 0.0000000000000000e+00  3.9229990665706730e-09 -2.4413773518572879e-03 0.0000000000000000e+00  4.0018891954437282e-09 -2.4480796079573144e-03 0.0000000000000000e+00  3.5535155582778633e-09 -2.4492755542175324e-03 0.0000000000000000e+00  2.1477398887298323e-09 -2.3518239187374011e-03 0.0000000000000000e+00  1.4875839414553467e-09 -2.4435966989968649e-03 0.0000000000000000e+00  4.0751719917946500e-10 -2.4473052176225574e-03 0.0000000000000000e+00  2.4435922324609212e-10 -2.4425816656738629e-03 0.0000000000000000e+00  1.6652110744528438e-09 -2.4478761604233815e-03 0.0000000000000000e+00  -1.2192313647769216e-10 -2.4486998996263772e-03 0.0000000000000000e+00  -1.2482295729236034e-09 -2.3518622998449025e-03 0.0000000000000000e+00  -2.6607398492724665e-09 -2.4436281135530873e-03 0.0000000000000000e+00  -1.7940741566023431e-09 -2.4473615111049859e-03 0.0000000000000000e+00  -1.4997678436796027e-09 -2.4427466976100348e-03 0.0000000000000000e+00  -1.3420891541617591e-09 -2.4479001817409151e-03 0.0000000000000000e+00  -1.1843597186682306e-09 -2.4488489191588489e-03 0.0000000000000000e+00  3.9430782680876642e-09 -2.4435527054657282e-03 0.0000000000000000e+00  2.0390490556332737e-09 -2.4473308567452834e-03 0.0000000000000000e+00  3.0397323983830151e-09 -2.4424768098691139e-03 0.0000000000000000e+00  -4.6522207567899639e-10 -2.4435661397511675e-03 0.0000000000000000e+00  -6.7121378767416078e-10 -2.4473406734211119e-03 0.0000000000000000e+00  1.1091964900448784e-10 -2.4424894668475705e-03 0.0000000000000000e+00  2.1007010514446386e-09 -2.3534528678144729e-03 0.0000000000000000e+00  2.7299801784955827e-09 -2.4437783189583135e-03 0.0000000000000000e+00  2.6750821747485231e-09 -2.4474382829641418e-03 0.0000000000000000e+00  2.9719746350571682e-09 -2.4427460223672352e-03 0.0000000000000000e+00  2.5668676435443702e-09 -2.4480213661901926e-03 0.0000000000000000e+00  2.3697197478127027e-09 -2.4487976418234195e-03 0.0000000000000000e+00  2.3460371189330362e-09 -2.4437237151818474e-03 0.0000000000000000e+00  2.1948552784357238e-09 -2.4473031522332976e-03 0.0000000000000000e+00  1.7650108084901451e-09 -2.4421159691883753e-03 0.0000000000000000e+00  -1.8886167496192019e-09 -2.3533049110883867e-03 0.0000000000000000e+00  -1.6365929193321987e-09 -2.4433933624042671e-03 0.0000000000000000e+00  -1.4240862120773531e-09 -2.4472339889136142e-03 0.0000000000000000e+00  -1.0552118509829864e-09 -2.4388498276018259e-03 0.0000000000000000e+00  -2.1451483503609974e-09 -2.4480013293025934e-03 0.0000000000000000e+00  -1.4529978597367965e-09 -2.4487072426131605e-03 0.0000000000000000e+00  -2.9415900826678845e-09 -2.4437405770326524e-03 0.0000000000000000e+00  -2.3197644003333166e-09 -2.4473021368116004e-03 0.0000000000000000e+00  -2.7138927535023043e-09 -2.4424819758964858e-03 0.0000000000000000e+00  5.0560448028921867e-09 -2.3518008158367166e-03 0.0000000000000000e+00  7.8121997228839052e-09 -2.4435437714733690e-03 0.0000000000000000e+00  8.3957111289250073e-09 -2.4473003751241868e-03 0.0000000000000000e+00  9.3871957118699652e-09 -2.4424352371982842e-03 0.0000000000000000e+00  7.0178294662556126e-09 -2.4478738887977127e-03 0.0000000000000000e+00  6.9206835217489503e-09 -2.4486872985222080e-03 0.0000000000000000e+00  3.9028704996843366e-09 -2.3607732568281898e-03 0.0000000000000000e+00  3.1872008090404573e-09 -2.4333520353011289e-03 0.0000000000000000e+00  2.0287740460925074e-09 -2.4487212357318547e-03 0.0000000000000000e+00  1.1428866724674072e-09 -2.4440181746180983e-03 0.0000000000000000e+00  3.4287206896746741e-09 -2.4478456514489756e-03 0.0000000000000000e+00  1.9692486984229500e-09 -2.4491391198314268e-03 0.0000000000000000e+00  -3.9098300172101986e-09 -2.3518168224098039e-03 0.0000000000000000e+00  -5.0109675213937144e-09 -2.4435522913198188e-03 0.0000000000000000e+00  -3.3432245999540540e-09 -2.4472926405990502e-03 0.0000000000000000e+00  -3.