<?xml version="1.0"?>
<VTKFile type="UnstructuredGrid"  version="0.1"  >
<UnstructuredGrid>
<Piece  NumberOfPoints="2690" NumberOfCells="4864">
<Points>
<DataArray  type="Float64"  NumberOfComponents="3"  format="ascii">-5.020569945095214 22.00450527279619 0  -5.620043126205268 21.26705276590262 0  -5.02015615992836 21.5048761661593 0  -5.019688655850762 21.00453812111494 0  -5.620441769514199 21.76713264531814 0  -6.220335208889828 21.52903076122853 0  -9 21.99999999996945 0  -8.399877869799623 21.26344186899179 0  -9 21.49999999997139 0  -9 20.99999999997333 0  -8.39994881980131 21.76343655804878 0  -7.799830489001923 21.52686147106992 0  -9 32.9999999999446 0  -8.401438972785039 32.26342720926383 0  -9 32.49999999994358 0  -9 31.99999999994255 0  -8.401509986745587 32.76342847257598 0  -7.802952590938304 32.52684646246595 0  -5.030934779304848 33.00487425520553 0  -5.546063394680983 32.30118145868714 0  -5.030499808113198 32.50551985322266 0  -5.030015657967012 32.0047209089964 0  -5.546473253340574 32.80130523426364 0  -6.062033663132829 32.59703818941404 0  -5.0508406846487 54.0046629872727 0  -5.646849438363118 54.74194220652676 0  -5.646457845923001 54.24213529060022 0  -6.24203548097728 54.4789288715947 0  -5.051284233556175 54.5049934071462 0  -5.051708347098524 55.00470724374552 0  -9 54.99999999998974 0  -8.476698800386011 54.29691031823376 0  -9 54.49999999998872 0  -9 53.99999999998769 0  -8.476759990752956 54.79689150167408 0  -7.953471119671929 54.59378894922951 0  -9 39.99999999995897 0  -8.402644384474577 40.73841312675929 0  -8.402573387588653 40.2384140021243 0  -7.805214385435638 40.47681485714018 0  -9 40.49999999996 0  -9 40.99999999996102 0  -5.038484326581061 41.00432336602445 0  -5.608810955862658 40.27246805321639 0  -5.038054341259399 40.50501771840789 0  -5.037603134529039 40.00486955139465 0  -5.609210854307338 40.7723944305302 0  -6.179971321947241 40.53967869296385 0  -9 55.99999999999179 0  -8.429401756564117 56.74417220428239 0  -8.429341094948455 56.24416042944395 0  -7.858745774873658 56.48832032109102 0  -9 56.49999999999282 0  -9 56.99999999999384 0  -5.052721932930294 56.00445962211055 0  -5.623942171201342 56.74779084043602 0  -5.623552083592616 56.24777240590119 0  -6.194329833852068 56.49053174548548 0  -5.053193309444855 56.5051425248504 0  -5.053615576728545 57.0047203439664 0  -7.453279284715182 43.0025498071511 0  -6.614025084758802 43.11215221646873 0  -7.217326033760272 43.34031912112032 0  -6.98141047425348 43.67809233360321 0  -6.849941779106512 42.77435534709971 0  -6.246537858810433 42.54616104006404 0  -6.590558871295133 49.0048044454565 0  -7.428637297538467 48.89493339646349 0  -6.826141099070736 48.66700096784063 0  -7.061762619195496 48.32918359590516 0  -7.193018358429645 49.23272700733377 0  -7.795411595714046 49.46068410126429 0  -6.588829880091911 46.00451462127572 0  -7.427510815903714 45.89474729803827 0  -6.824583742933879 45.66665998600891 0  -7.060376259187758 45.32882856157163 0  -7.191721175040366 46.23257575336454 0  -7.794546537067617 46.46061975052285 0  -6.56647349938293 7.00468251292302 0  -7.412931689699334 6.894878216739587 0  -6.804416323934856 6.66687624812781 0  -7.042397769277148 6.329071193669484 0  -7.174953155461806 7.232682821239835 0  -7.783367269375638 7.460679358802478 0  -7.448490646932417 30.00252113779279 0  -6.606637042851523 30.11208913711888 0  -7.211807017817391 30.34022215837366 0  -6.9751614691086 30.67790796964842 0  -6.84328451931798 29.7743732801933 0  -6.23801148798464 29.54624960422081 0  -6.564796254206269 4.004459920421149 0  -7.411924950780433 4.111080235676534 0  -6.80324475273616 4.341400105858917 0  -7.041657091543856 4.678325350678535 0  -7.17351496511339 3.774145550683191 0  -7.782290158052717 3.543860907822047 0  -6.568179984684192 10.00472447188758 0  -7.414123575546689 10.11125701964481 0  -6.806301184741552 10.341605433049 0  -7.044385457450179 10.6784864313781 0  -7.176036749718335 9.774380310337087 0  -7.783959169271645 9.54403100893545 0  -6.569890238778108 13.00476383185106 0  -7.41515836695239 12.89494377798205 0  -6.807497079955979 12.66695911044556 0  -7.04514231802376 12.32915601914493 0  -7.177515215691988 13.23275401774721 0  -7.785075322631922 13.46073047157871 0  -6.571606317754322 16.00483678553194 0  -7.41627781104242 15.89496476329673 0  -6.809044609177189 15.66703731068586 0  -7.046521747008618 15.3292262374624 0  -7.178803228548143 16.23275851346386 0  -7.78593448533211 16.46070756937113 0  -6.573333037485776 19.00433060700178 0  -7.417485559236496 19.11095045967875 0  -6.810954776583953 19.3411351412714 0  -7.048537488498315 19.67796684723255 0  -7.179900157271663 18.77410509770695 0  -7.786533946862243 18.54386689181359 0  -6.577920727559901 27.00416811998081 0  -7.420477261387425 27.1108484420025 0  -6.815091377723995 27.34106362042769 0  -7.052224242583938 27.67796555115986 0  -7.183342195603982 26.77392106669678 0  -7.788829263386541 26.54371183721139 0  -8.272393909616605 19.09517686964508 0  -8.029479902094003 18.81951475301061 0  -8.393227897177223 18.27194601200567 0  -8.636149578503982 18.54760811311059 0  -9 17.99999999998495 0  -8.273769576486076 27.09512558530098 0  -8.03131523233928 26.81941925882071 0  -8.394375872815186 26.27185181292326 0  -8.636837808859454 26.54756197126353 0  -9 25.99999999995395 0  -8.27184361506956 15.90753402953148 0  -8.028873157240282 16.18412336313954 0  -8.393006082717347 16.73034351083232 0  -8.635968881646082 16.4537595560701 0  -9 16.99999999998883 0  -5.753941604008549 30.09940795621817 0  -5.995959491131992 29.82282272509674 0  -5.632635329214478 29.27643062410771 0  -5.390605268821349 29.55322707415873 0  -5.027134317988595 29.00449720111601 0  -8.271328804105165 12.90753245279447 0  -8.028186254021179 13.18413051133466 0  -8.39257625916648 13.73036719563522 0  -8.635711244161781 13.45376840922289 0  -9 13.99999999999401 0  -8.270848187990747 10.09532044515587 0  -8.027419359453409 9.819675921303961 0  -8.39194102522341 9.272014747346152 0  -8.635377480153428 9.547659319856646 0  -9 8.99999999999857 0  -8.269840564179507 4.095236790769635 0  -8.02607972769693 3.819552631002098 0  -8.391113720841744 3.271923898647306 0  -8.634878576380657 3.547609021464905 0  -9 2.999999999998668 0  -8.270305395908652 6.907499640571066 0  -8.026820610398815 7.184088600464021 0  -8.391722063106648 7.730341039894805 0  -8.635199165851843 7.453752571243246 0  -9 7.999999999999485 0  -8.277008376328087 45.90743933329496 0  -8.035761591704942 46.18402435150941 0  -8.397312120656558 46.730317962185 0  -8.638551192635934 46.45373340124539 0  -9 46.99999999997333 0  -8.277526202054894 48.90751702345896 0  -8.036452881652675 49.18410305101933 0  -8.397744829276808 49.73033147891591 0  -8.638810497919026 49.45375200003968 0  -9 49.99999999997949 0  -5.7639655671034 43.0994615918239 0  -6.005234384361001 42.82280869375285 0  -5.643030315788605 42.27627880486394 0  -5.401750230097815 42.55316712398599 0  -5.039394711386227 42.00431683095372 0  -5.744475475201139 23.92188313759749 0  -5.99203589296659 24.18913353780038 0  -5.631466732973418 24.73150914155635 0  -6.239562850817567 24.45639840305079 0  -5.383925173181696 24.46447246856016 0  -5.0234515115584 25.00448542875356 0  -8.282761754519194 52.08493587903067 0  -8.036981909049953 51.81765864568224 0  -8.395545491735176 51.27520931384088 0  -7.791170531745927 51.55039406280444 0  -8.641334272869063 51.54248626563823 0  -9 50.99999999998153 0  -5.755396385527084 38.08917336726904 0  -6.001742833002382 37.82092005939956 0  -5.641463431966229 37.27955129856336 0  -6.248122651438001 37.55268402879016 0  -5.395103606298457 37.54805854090558 0  -5.034666418216954 37.00411607771646 0  -5.752953810427042 34.92183868560156 0  -5.99987147574857 35.18905709375178 0  -5.640245487788761 35.73137725069306 0  -6.246755725140416 35.45628961551949 0  -5.393343838278274 35.46440370251518 0  -5.033820492021205 36.00428888479276 0  -7.897028113131481 50.50226406648804 0  -7.844092659844661 51.02633469767955 0  -8.448547000816765 50.75112020059504 0  -6.141069098907323 36.50445022333327 0  -6.19460101862769 37.02853889676425 0  -5.587869027757736 36.75508253954434 0  -6.193906995084922 35.98034198944727 0  -5.587469547456803 36.25503718995324 0  -5.994592525175165 25.26485317849517 0  -6.117067408861705 24.86063611779509 0  -5.509030408462994 25.13549142181348 0  -8.033364769961414 25.74743303170365 0  -7.911085486649159 26.14557229807417 0  -8.516696850664147 25.87371723187872 0  -6.95892471690861 34.37918599110212 0  -6.602793770347605 34.91776245142051 0  -6.857814975018576 35.2418688462215 0  -7.213951225908946 34.70332896149098 0  -7.468938073799945 35.02746402562021 0  -7.08169791730022 52.62737167675829 0  -7.436388212611944 52.08890656119804 0  -7.182431835586809 51.76486974487432 0  -6.827746396156368 52.30334817651779 0  -6.573755114165259 51.97933781449052 0  -6.960987778951324 38.62735289007663 0  -6.604601440260605 38.09004420816004 0  -6.85909897594218 37.76505885834457 0  -7.215480100935173 38.30240623745647 0  -7.470012005565089 37.97745031486082 0  -6.953596331420837 23.37921053412887 0  -6.59653350517551 23.91781946850583 0  -6.852219167128094 24.24194595374794 0  -7.209287481679404 23.70336813070355 0  -7.464939160274145 24.02751310620515 0  -7.888492454855833 17.50210978211442 0  -7.837506718508029 18.02299500916568 0  -8.444279167283058 17.75104258160447 0  -7.837219731842287 16.98141113810252 0  -8.444213298960179 17.25106166471551 0  -7.886138419052427 8.502159653229331 0  -7.835042567123558 9.023095750420385 0  -8.443101675974527 8.751080320441236 0  -7.931921231546101 2.417472468774217 0  -7.857092309879881 2.980660953139597 0  -8.465991506448548 2.708742618795199 0  -7.834759055896121 7.981420689483127 0  -8.443036636426795 8.251078303647029 0  -7.84622627317856 49.98147674887698 0  -8.448480904794989 50.25113889237682 0  -6.055635786347688 41.59747024529271 0  -6.151096692330134 42.07183430391803 0  -5.54
[...]
<PointData  Vectors="f_27"> 
<DataArray  type="Float64"  Name="f_27"  NumberOfComponents="3" format="ascii">0.0000000000000000e+00 0.0000000000000000e+00 0.0000000000000000e+00  2.0022249252701152e-06 -7.8084143836441786e-03 0.0000000000000000e+00  0.0000000000000000e+00 0.0000000000000000e+00 0.0000000000000000e+00  0.0000000000000000e+00 0.0000000000000000e+00 0.0000000000000000e+00  -1.3922563643810294e-05 -1.0923280211888861e-02 0.0000000000000000e+00  -9.7256951621099418e-07 -1.1241421239860194e-02 0.0000000000000000e+00  0.0000000000000000e+00 0.0000000000000000e+00 0.0000000000000000e+00  8.9558544327919529e-06 -7.9500341405403397e-03 0.0000000000000000e+00  0.0000000000000000e+00 0.0000000000000000e+00 0.0000000000000000e+00  0.0000000000000000e+00 0.0000000000000000e+00 0.0000000000000000e+00  3.2536174864890893e-05 -1.0902849795011167e-02 0.0000000000000000e+00  1.9303712694673000e-05 -1.1288656378275549e-02 0.0000000000000000e+00  0.0000000000000000e+00 0.0000000000000000e+00 0.0000000000000000e+00  8.0546433302617020e-06 -7.7880304102745023e-03 0.0000000000000000e+00  0.0000000000000000e+00 0.0000000000000000e+00 0.0000000000000000e+00  0.0000000000000000e+00 0.0000000000000000e+00 0.0000000000000000e+00  3.1313794226795330e-05 -1.0879386457368348e-02 0.0000000000000000e+00  1.8524272318372724e-05 -1.1265869665211831e-02 0.0000000000000000e+00  0.0000000000000000e+00 0.0000000000000000e+00 0.0000000000000000e+00  1.5003701280732797e-06 -8.1772187297353173e-03 0.0000000000000000e+00  0.0000000000000000e+00 0.0000000000000000e+00 0.0000000000000000e+00  0.0000000000000000e+00 0.0000000000000000e+00 0.0000000000000000e+00  -5.8450433518015534e-06 -1.0923886451807417e-02 0.0000000000000000e+00  2.5554409798759119e-06 -1.1294277203653563e-02 0.0000000000000000e+00  0.0000000000000000e+00 0.0000000000000000e+00 0.0000000000000000e+00  8.2061580407087977e-06 -8.1236664951249375e-03 0.0000000000000000e+00  3.2824433167375547e-05 -1.0869825415778394e-02 0.0000000000000000e+00  1.7880863318112377e-05 -1.1237895639876511e-02 0.0000000000000000e+00  0.0000000000000000e+00 0.0000000000000000e+00 0.0000000000000000e+00  0.0000000000000000e+00 0.0000000000000000e+00 0.0000000000000000e+00  0.0000000000000000e+00 0.0000000000000000e+00 0.0000000000000000e+00  4.5257646840783109e-06 -8.1108558810841728e-03 0.0000000000000000e+00  0.0000000000000000e+00 0.0000000000000000e+00 0.0000000000000000e+00  0.0000000000000000e+00 0.0000000000000000e+00 0.0000000000000000e+00  1.0934020446554425e-05 -1.0965330461967373e-02 0.0000000000000000e+00  9.5873458321018488e-06 -1.1262687103241934e-02 0.0000000000000000e+00  0.0000000000000000e+00 0.0000000000000000e+00 0.0000000000000000e+00  4.1800919444083533e-06 -7.7585838203735281e-03 0.0000000000000000e+00  -1.3128818344951921e-05 -1.0870015924925640e-02 0.0000000000000000e+00  -8.0085469105338213e-07 -1.1250515787444975e-02 0.0000000000000000e+00  0.0000000000000000e+00 0.0000000000000000e+00 0.0000000000000000e+00  0.0000000000000000e+00 0.0000000000000000e+00 0.0000000000000000e+00  0.0000000000000000e+00 0.0000000000000000e+00 0.0000000000000000e+00  1.2331594454303618e-05 -7.9025909563157064e-03 0.0000000000000000e+00  0.0000000000000000e+00 0.0000000000000000e+00 0.0000000000000000e+00  0.0000000000000000e+00 0.0000000000000000e+00 0.0000000000000000e+00  -6.2730376927100081e-07 -1.0992427979511001e-02 0.0000000000000000e+00  6.8860297329432979e-06 -1.1276348378601173e-02 0.0000000000000000e+00  0.0000000000000000e+00 0.0000000000000000e+00 0.0000000000000000e+00  1.3991935080852115e-05 -8.4212840832491049e-03 0.0000000000000000e+00  -2.7623319505053270e-06 -1.0901240225231080e-02 0.0000000000000000e+00  1.0150062645810752e-05 -1.1253970231477077e-02 0.0000000000000000e+00  0.0000000000000000e+00 0.0000000000000000e+00 0.0000000000000000e+00  0.0000000000000000e+00 0.0000000000000000e+00 0.0000000000000000e+00  0.0000000000000000e+00 0.0000000000000000e+00 0.0000000000000000e+00  -2.0744497147704477e-06 -8.4222462318917952e-03 0.0000000000000000e+00  1.7505352141116884e-05 -1.0900547510111378e-02 0.0000000000000000e+00  5.4868534747066960e-06 -1.1250181626998952e-02 0.0000000000000000e+00  0.0000000000000000e+00 0.0000000000000000e+00 0.0000000000000000e+00  0.0000000000000000e+00 0.0000000000000000e+00 0.0000000000000000e+00  1.2690103755487741e-05 -1.1569566639178703e-02 0.0000000000000000e+00  1.2769629578711315e-05 -1.1577203440465577e-02 0.0000000000000000e+00  1.1071980949767878e-05 -1.1578752554275866e-02 0.0000000000000000e+00  1.0176252164991196e-05 -1.1579223439465382e-02 0.0000000000000000e+00  1.2070095306586129e-05 -1.1577692020200314e-02 0.0000000000000000e+00  5.8367754865703386e-06 -1.1535319372254462e-02 0.0000000000000000e+00  1.6718401841136610e-05 -1.1554697688923933e-02 0.0000000000000000e+00  1.5264250918338094e-05 -1.1548360728024624e-02 0.0000000000000000e+00  1.6905728855069145e-05 -1.1563436419537897e-02 0.0000000000000000e+00  1.6662348567814607e-05 -1.1557248548821364e-02 0.0000000000000000e+00  1.4335219149617406e-05 -1.1561188337588634e-02 0.0000000000000000e+00  8.9361971374749866e-06 -1.1518804397218444e-02 0.0000000000000000e+00  9.0280910395904415e-06 -1.1560709899831172e-02 0.0000000000000000e+00  8.8078999167211597e-06 -1.1566927001654055e-02 0.0000000000000000e+00  7.7791793976147389e-06 -1.1571063901874729e-02 0.0000000000000000e+00  7.4557621762033640e-06 -1.1573705760401483e-02 0.0000000000000000e+00  8.9204811940813301e-06 -1.1565492607806243e-02 0.0000000000000000e+00  5.5945728230958028e-06 -1.1522026252340969e-02 0.0000000000000000e+00  1.1020895113020273e-05 -1.1617433040562350e-02 0.0000000000000000e+00  9.1609287972038071e-06 -1.1623971559328972e-02 0.0000000000000000e+00  1.0155788677614097e-05 -1.1627317169201795e-02 0.0000000000000000e+00  1.1097152394794294e-05 -1.1628272733585382e-02 0.0000000000000000e+00  8.9989179349563150e-06 -1.1624868741634755e-02 0.0000000000000000e+00  4.5344926939196508e-06 -1.1585242412062114e-02 0.0000000000000000e+00  8.9503694684283832e-06 -1.1583408908450613e-02 0.0000000000000000e+00  1.3898957944687331e-05 -1.1580794431371685e-02 0.0000000000000000e+00  8.7055166861337538e-06 -1.1596870143066536e-02 0.0000000000000000e+00  9.2609954090623337e-06 -1.1589421839701625e-02 0.0000000000000000e+00  1.1764832167683942e-05 -1.1591073262286498e-02 0.0000000000000000e+00  9.7100497909675748e-06 -1.1546106612357903e-02 0.0000000000000000e+00  1.4504475074617109e-05 -1.1624673460448319e-02 0.0000000000000000e+00  1.4754945717030173e-05 -1.1629596714974579e-02 0.0000000000000000e+00  1.4931679710868344e-05 -1.1633053183309532e-02 0.0000000000000000e+00  1.3943950376841017e-05 -1.1632210902101691e-02 0.0000000000000000e+00  1.4697488586015066e-05 -1.1631466430372515e-02 0.0000000000000000e+00  1.7969003525525460e-05 -1.1593871256835865e-02 0.0000000000000000e+00  1.8302483124460687e-05 -1.1614426693286453e-02 0.0000000000000000e+00  1.7678104970794568e-05 -1.1618380426023034e-02 0.0000000000000000e+00  1.7319548042117850e-05 -1.1622087859053750e-02 0.0000000000000000e+00  1.5844364849033316e-05 -1.1621481015056631e-02 0.0000000000000000e+00  1.9370320451902063e-05 -1.1620432543273268e-02 0.0000000000000000e+00  2.3958044564169100e-05 -1.1574967305134696e-02 0.0000000000000000e+00  1.1794005328765706e-05 -1.1607063191515004e-02 0.0000000000000000e+00  1.0885613798387879e-05 -1.1613512448931464e-02 0.0000000000000000e+00  1.1390454346779742e-05 -1.1617028669462081e-02 0.0000000000000000e+00  1.2597743113125386e-05 -1.1618118390838251e-02 0.0000000000000000e+00  1.0135515614379361e-05 -1.1613478633807012e-02 0.0000000000000000e+00  6.0211506593673886e-06 -1.1570729138632730e-02 0.0000000000000000e+00  1.6175184853080644e-05 -1.1605087515333398e-02 0.0000000000000000e+00  1.4865969954770844e-05 -1.1598387865684760e-02 0.0000000000000000e+00  1.6497586875341931e-05 -1.1613616660420193e-02 0.0000000000000000e+00  1.6403005265954270e-05 -1.1607324189921905e-02 0.0000000000000000e+00  1.3737007747543274e-05 -1.1611314011389914e-02 0.0000000000000000e+00  8.4079856742735748e-06 -1.1568761785336076e-02 0.0000000000000000e+00  2.3852617830054957e-05 -1.1599775182142488e-02 0.0000000000000000e+00  1.7673240677951424e-05 -1.1597221441380735e-02 0.0000000000000000e+00  2.1925184872152927e-05 -1.1612723020335723e-02 0.0000000000000000e+00  1.7913752985487154e-05 -1.1604225879855710e-02 0.0000000000000000e+00  2.1288412498552030e-05 -1.1609610204850376e-02 0.0000000000000000e+00  2.4215146804973395e-05 -1.1561304948896999e-02 0.0000000000000000e+00  1.8965550665734117e-05 -1.1585026820772639e-02 0.0000000000000000e+00  1.7084449003293602e-05 -1.1596093081024956e-02 0.0000000000000000e+00  1.9383134691228240e-05 -1.1598092328099371e-02 0.0000000000000000e+00  1.7283971193424117e-05 -1.1594142375186949e-02 0.0000000000000000e+00  1.6563808288575784e-05 -1.1596713166386939e-02 0.0000000000000000e+00  1.8702694604062783e-05 -1.1556702291260951e-02 0.0000000000000000e+00  1.0073800768459559e-05 -1.0874499141587186e-02 0.0000000000000000e+00  2.0918427356486630e-05 -1.1490898659849752e-02 0.0000000000000000e+00  2.9596577400709452e-05 -1.0998115141855580e-02 0.0000000000000000e+00  1.7803072070194690e-05 -7.8349025784769689e-03 0.0000000000000000e+00  0.0000000000000000e+00 0.0000000000000000e+00 0.0000000000000000e+00  1.2114555102755794e-05 -1.0874537250647576e-02 0.0000000000000000e+00  1.6704900997507896e-05 -1.1482502463504655e-02 0.0000000000000000e+00  2.1684133319834360e-05 -1.0992501882127460e-02 0.0000000000000000e+00  1.3775976943452171e-05 -7.8216954986388768e-03 0.0000000000000000e+00  0.0000000000000000e+00 0.0000000000000000e+00 0.0000000000000000e+00  1.0495233275895542e-05 -1.0890463498619985e-02 0.0000000000000000e+00  5.0005431335883596e-06 -1.1491228951035083e-02 0.0000000000000000e+00  -3.6201880468426611e-06 -1.1071179178844251e-02 0.0000000000000000e+00  -5.9061847441586866e-06 -7.7621904350152404e-03 0.0000000000000000e+00  0.0000000000000000e+00 0.0000000000000000e+00 0.0000000000000000e+00  1.8290914240027839e-05 -1.0860802212356314e-02 0.0000000000000000e+00  1.8606019385840716e-05 -1.1472742053139201e-02 0.0000000000000000e+00  1.4297115193538696e-06 -1.0991006208271027e-02 0.0000000000000000e+00  3.1002325933690031e-06 -7.8240059818156637e-03 0.0000000000000000e+00  0.0000000000000000e+00 0.0000000000000000e+00 0.0000000000000000e+00  1.1574282829786710e-05 -1.0888920054464258e-02 0.0000000000000000e+00  6.6371424887979384e-06 -1.1496188189498970e-02 0.0000000000000000e+00  -6.1114113100870419e-07 -1.1011868770104186e-02 0.0000000000000000e+00  1.4061792218943263e-06 -7.8383681183968844e-03 0.0000000000000000e+00  0.0000000000000000e+00 0.0000000000000000e+00 0.0000000000000000e+00  1.4840841734251878e-05 -1.0890716513370443e-02 0.0000000000000000e+00  2.2458323576825423e-05 -1.1501347893162778e-02 0.0000000000000000e+00  2.9984369232071028e-05 -1.1009128099654082e-02 0.0000000000000000e+00  1.9128718845560236e-05 -7.8471419840328883e-03 0.0000000000000000e+00  0.0000000000000000e+00 0.0000000000000000e+00 0.0000000000000000e+00  1.5024679548052361e-05 -1.0918643140820937e-02 0.0000000000000000e+00  1.9903706482041826e-05 -1.1512974995699740e-02 0.0000000000000000e+00  2.5708333070989709e-05 -1.1096271184234634e-02 0.0000000000000000e+00  2.1656672926212631e-05 -7.7862860585405326e-03 0.0000000000000000e+00  0.0000000000000000e+00 0.0000000000000000e+00 0.0000000000000000e+00  6.0796984957443960e-06 -1.0912457706360155e-02 0.0000000000000000e+00  1.5072988957951785e-06 -1.1505678125567567e-02 0.0000000000000000e+00  -5.8745650834424495e-06 -1.1084410078763119e-02 0.0000000000000000e+00  -7.4589723876880245e-06 -7.7772538556116714e-03 0.0000000000000000e+00  0.0000000000000000e+00 0.0000000000000000e+00 0.0000000000000000e+00  1.2557733431682966e-05 -1.0837483544866954e-02 0.0000000000000000e+00  6.6488716083823442e-06 -1.1446455706337826e-02 0.0000000000000000e+00  -3.8595266099577109e-07 -1.0964046414076171e-02 0.0000000000000000e+00  1.6441308438823432e-06 -7.7851095004002925e-03 0.0000000000000000e+00  0.0000000000000000e+00 0.0000000000000000e+00 0.0000000000000000e+00  1.0768733353353644e-05 -1.0838486149414732e-02 0.0000000000000000e+00  5.4578725393968539e-06 -1.1440657068670639e-02 0.0000000000000000e+00  -2.9551107032839757e-06 -1.1022816907950489e-02 0.0000000000000000e+00  -5.4562389274071567e-06 -7.7092361095867992e-03 0.0000000000000000e+00  0.0000000000000000e+00 0.0000000000000000e+00 0.0000000000000000e+00  1.4777740305261225e-05 -1.0848677988950291e-02 0.0000000000000000e+00  1.4191735176061416e-05 -1.1458897066940395e-02 0.0000000000000000e+00  -6.3122287316276112e-06 -1.0975103666636878e-02 0.0000000000000000e+00  2.7935466562697797e-07 -7.8089790723605132e-03 0.0000000000000000e+00  0.0000000000000000e+00 0.0000000000000000e+00 0.0000000000000000e+00  1.5562948083813799e-05 -1.0920021369023165e-02 0.0000000000000000e+00  2.5563150884609801e-05 -1.1492472918272234e-02 0.0000000000000000e+00  2.1139398144990052e-05 -1.0983477009737784e-02 0.0000000000000000e+00  1.8814204395229708e-05 -1.1555966599799058e-02 0.0000000000000000e+00  1.3839967536732828e-05 -7.8346562718344358e-03 0.0000000000000000e+00  0.0000000000000000e+00 0.0000000000000000e+00 0.0000000000000000e+00  1.3815931657851150e-05 -1.0870126547740003e-02 0.0000000000000000e+00  2.2898787335533978e-05 -1.1445753241742051e-02 0.0000000000000000e+00  3.0000937457576170e-05 -1.0948844417957191e-02 0.0000000000000000e+00  2.3772575691917299e-05 -1.1507105417608398e-02 0.0000000000000000e+00  1.7700947895035050e-05 -7.8042869823618131e-03 0.0000000000000000e+00  0.0000000000000000e+00 0.0000000000000000e+00 0.0000000000000000e+00  1.2767558670684080e-05 -1.0895417139905068e-02 0.0000000000000000e+00  1.0597564907944885e-05 -1.1466680030447967e-02 0.0000000000000000e+00  -8.3521992021666712e-06 -1.0980820204949964e-02 0.0000000000000000e+00  4.0633948526140035e-06 -1.1531101490250380e-02 0.0000000000000000e+00  -8.7739129280664083e-07 -7.8413423029875823e-03 0.0000000000000000e+00  0.0000000000000000e+00 0.0000000000000000e+00 0.0000000000000000e+00  2.4355987020933887e-05 -1.0919790207435998e-02 0.0000000000000000e+00  3.4402152460219153e-05 -1.1474043845582555e-02 0.0000000000000000e+00  2.8647885326943113e-05 -1.1040224033232505e-02 0.0000000000000000e+00  2.4087794392569468e-05 -1.1543667392990412e-02 0.0000000000000000e+00  2.4171189540088075e-05 -7.7432674665477361e-03 0.0000000000000000e+00  0.0000000000000000e+00 0.0000000000000000e+00 0.0000000000000000e+00  1.6950902968845087e-05 -1.1078916806940464e-02 0.0000000000000000e+00  2.4871319259835856e-05 -1.1508208300639221e-02 0.0000000000000000e+00  3.4063024296460272e-05 -1.0680524128130220e-02 0.0000000000000000e+00  4.2900520968535271e-07 -1.1102648531665453e-02 0.0000000000000000e+00  -1.0805300506703106e-06 -1.1530931577356391e-02 0.0000000000000000e+00  -2.4563134507399466e-05 -1.0705246787087867e-02 0.0000000000000000e+00  2.0281483925684340e-05 -1.1491313259938053e-02 0.0000000000000000e+00  -7.4706113226370004e-07 -7.4310332502505929e-03 0.0000000000000000e+00  1.0547150346723685e-05 -1.1238734475096468e-02 0.0000000000000000e+00  1.6476776541411834e-05 -1.1555394990144435e-02 0.0000000000000000e+00  1.1921981417630381e-05 -1.0780769119531490e-02 0.0000000000000000e+00  1.8021652317647316e-05 -1.1195004580735832e-02 0.0000000000000000e+00  1.8160717847960743e-05 -1.1548056922482836e-02 0.0000000000000000e+00  2.5010098369288856e-05 -1.0783919257048689e-02 0.0000000000000000e+00  1.8304184034344949e-05 -1.1587771033233872e-02 0.0000000000000000e+00  2.1118883497028741e-05 -1.1574140426303668e-02 0.0000000000000000e+00  1.9534574083300737e-05 -1.1588014671249374e-02 0.0000000000000000e+00  1.8942582150891779e-05 -1.1589929529581681e-02 0.0000000000000000e+00  1.7733125993445506e-05 -1.1578942458862903e-02 0.0000000000000000e+00  1.7771777569531522e-05 -1.1549615530522521e-02 0.0000000000000000e+00  1.5365366002923704e-05 -1.1533009421086237e-02 0.0000000000000000e+00  1.9648217846407999e-05 -1.1557985700469318e-02 0.0000000000000000e+00  1.9522708555286049e-05 -1.1560020472669260e-02 0.0000000000000000e+00  2.0139482583819116e-05 -1.1543774547751623e-02 0.0000000000000000e+00  1.1252229825296083e-05 -1.1581348384119056e-02 0.0000000000000000e+00  1.3904823845046679e-05 -1.1566698171327916e-02 0.0000000000000000e+00  9.5245518125812488e-06 -1.1581141572322620e-02 0.0000000000000000e+00  1.0479409524776352e-05 -1.1584283175810752e-02 0.0000000000000000e+00  8.5335948441371646e-06 -1.1574229446800321e-02 0.0000000000000000e+00  1.4210732688188964e-05 -1.1602813384532718e-02 0.0000000000000000e+00  1.5592849156223370e-05 -1.1591234642557680e-02 0.0000000000000000e+00  1.4017836217843820e-05 -1.1602294118382478e-02 0.0000000000000000e+00  1.4489522905379557e-05 -1.1604294702792620e-02 0.0000000000000000e+00  1.1896587294359299e-05 -1.1587706710578570e-02 0.0000000000000000e+00  1.6537717573211369e-05 -1.1128504317563561e-02 0.0000000000000000e+00  2.4806539018561538e-05 -1.1558644636801545e-02 0.0000000000000000e+00  3.4062387627678599e-05 -1.0731157351506072e-02 0.0000000000000000e+00  5.8736527251312119e-06 -1.1517026138223412e-02 0.0000000000000000e+00  4.5167715895926256e-06 -7.4484180818264788e-03 0.0000000000000000e+00  1.5183906929192424e-05 -1.1142312145326896e-02 0.0000000000000000e+00  2.3935479073436114e-05 -1.1570503088084175e-02 0.0000000000000000e+00  3.3712356748179160e-05 -1.0743144535721684e-02 0.0000000000000000e+00  1.2695456846045705e-05 -1.1233797321805600e-02 0.0000000000000000e+00  1.7920830450697881e-05 -1.1546360123270632e-02 0.0000000000000000e+00  1.0522825274875863e-05 -7.5436112634435634e-03 0.0000000000000000e+00  3.3679710839259328e-06 -1.1530524084456348e-02 0.0000000000000000e+00  3.7903649005484033e-06 -7.4598936726529546e-03 0.0000000000000000e+00  6.3900852603909603e-06 -1.1466653901379536e-02 0.0000000000000000e+00  4.9461654281697781e-06 -7.4028940449714165e-03 0.0000000000000000e+00  -1.0348937264858803e-05 -1.1156221584629937e-02 0.0000000000000000e+00  -1.4642517955154789e-06 -1.1532980569912171e-02 0.0000000000000000e+00  -2.6666101869160705e-05 -1.0715539612172415e-02 0.0000000000000000e+00  1.0789379383558405e-05 -1.1600737816578601e-02 0.0000000000000000e+00  1.4220027420412281e-05 -1.1605536909353932e-02 0.0000000000000000e+00  1.0857519482201850e-05 -1.1603964559370633e-02 0.0000000000000000e+00  2.0201411483632760e-05 -1.1561214597572167e-02 0.0000000000000000e+00  2.1653586972826986e-05 -1.1562134202358014e-02 0.0000000000000000e+00  1.9488673442119534e-05 -1.1562464168136279e-02 0.0000000000000000e+00  7.7525200562606793e-06 -1.1583256079534676e-02 0.0000000000000000e+00  6.0004271787932839e-06 -1.1583742599445623e-02 0.0000000000000000e+00  8.7587558824564057e-06 -1.1584972159023548e-02 0.0000000000000000e+00  1.6969016298230811e-05 -1.1588196357674991e-02 0.0000000000000000e+00  1.9650105222731420e-05 -1.1589771406501907e-02 0.0000000000000000e+00  1.7806061904706766e-05 -1.1589844555780734e-02 0.0000000000000000e+00  -3.1269200075961832e-06 -1.1192116668397846e-02 0.0000000000000000e+00  5.0384287895893622e-06 -1.1541119051736102e-02 0.0000000000000000e+00  -1.6409138115334861e-05 -1.0763605111397916e-02 0.0000000000000000e+00  1.4001856076971463e-05 -1.1535980128495013e-02 0.0000000000000000e+00  1.3868342754629986e-05 -1.1525019643154550e-02 0.0000000000000000e+00  1.2489391991201411e-05 -1.1578312217113538e-02 0.0000000000000000e+00  2.0366822602044242e-05 -1.1255845945012924e-02 0.0000000000000000e+00  1.3527057661438274e-05 -1.1494669868617809e-02 0.0000000000000000e+00  1.7135381534233299e-05 -1.1547223839528347e-02 0.0000000000000000e+00  1.2370166485800230e-05 -1.1526955381122007e-02 0.0000000000000000e+00  9.8082099021522017e-06 -1.1513356896033416e-02 0.0000000000000000e+00  9.6387770045002458e-06 -1.1568