<?xml version="1.0"?>
<VTKFile type="UnstructuredGrid"  version="0.1"  >
<UnstructuredGrid>
<Piece  NumberOfPoints="2690" NumberOfCells="4864">
<Points>
<DataArray  type="Float64"  NumberOfComponents="3"  format="ascii">-5.106271785666424 22.02319689686478 0  -5.690610104453907 21.2858953674971 0  -5.104211298687503 21.52509227375222 0  -5.101682418456774 21.02327927240878 0  -5.692746173453711 21.78633390357968 0  -6.279117988255808 21.54573106850718 0  -9 21.99999999996945 0  -8.412395222135558 21.26734769206234 0  -9 21.49999999997139 0  -9 20.99999999997333 0  -8.412773486223418 21.76732097335923 0  -7.825193711664465 21.53458003177073 0  -9 32.9999999999446 0  -8.420635798360181 32.26727096177393 0  -9 32.49999999994358 0  -9 31.99999999994255 0  -8.421013111112364 32.76727869190506 0  -7.841669965392094 32.53450073801226 0  -5.160909979256727 33.02504390856615 0  -5.656918275697123 32.32114890970894 0  -5.158775157797437 32.52838859919306 0  -5.156023616198701 32.02423372627187 0  -5.65914060111272 32.82179846066588 0  -6.157262243910477 32.61494123902789 0  -5.267637494101807 54.02382079766074 0  -5.833534056783437 54.76019315285542 0  -5.831418094679287 54.26119676647225 0  -6.394787033476576 54.49509151329724 0  -5.270196407333707 54.5256357019114 0  -5.272312949310906 55.02401047590863 0  -9 54.99999999998974 0  -8.505556272061876 54.30019530903567 0  -9 54.49999999998872 0  -9 53.99999999998769 0  -8.505895746870797 54.80009247201962 0  -8.011524125243065 54.6002188633206 0  -9 39.99999999995897 0  -8.427047951422255 40.74218962136901 0  -8.42667031811664 40.24219565184691 0  -7.853702394013546 40.48431965577819 0  -9 40.49999999996 0  -9 40.99999999996102 0  -5.201034482859507 41.02208364407736 0  -5.745693055280175 40.29163541874409 0  -5.198910678734491 40.5257195264657 0  -5.196392720873876 40.02490277724632 0  -5.747828815965243 40.79126140857866 0  -6.294595704513751 40.55635876736922 0  -9 55.99999999999179 0  -8.462305630759406 56.74766064918837 0  -8.46197132797985 56.2475950315515 0  -7.924292422775809 56.49519064637705 0  -9 56.49999999999282 0  -9 56.99999999999384 0  -5.277914390528422 56.02270600752633 0  -5.819123156682262 56.76613439096717 0  -5.817056683415142 56.26603309138844 0  -6.355706592372174 56.50647973308805 0  -5.280631784111054 56.52640387218783 0  -5.282744662973921 57.02410289477333 0  -7.520088888885998 43.01314672534922 0  -6.71739120993715 43.12871565594258 0  -7.294941101996322 43.35271761776177 0  -7.069983700372539 43.69230459177837 0  -6.942336292909691 42.78899861439587 0  -6.364257930114304 42.56486326363449 0  -6.709404997371255 49.02487628912485 0  -7.505958914038326 48.90790705465753 0  -6.932555285803041 48.68513302158865 0  -7.155941092078797 48.34531144829337 0  -7.282598414664708 49.24760347195205 0  -7.855425180143452 49.47050739126894 0  -6.700267686445285 46.02335738021166 0  -7.500001350770187 45.90691749927967 0  -6.924363047063135 45.68332978462035 0  -7.148671970412643 45.34342310086188 0  -7.275704783675431 46.24680427906405 0  -7.850808612277028 46.47016471098298 0  -6.582539441993523 7.02413734994049 0  -7.423228592866518 6.907541238561121 0  -6.818164262467352 6.684380384723909 0  -7.054004117608486 6.344628338347441 0  -7.187401511356234 7.247287965513808 0  -7.791932542255767 7.470423223560759 0  -7.494646777029818 30.01300010843741 0  -6.678133016872867 30.1283830164321 0  -7.265632122042097 30.35220983411032 0  -7.036816730496363 30.69133625702176 0  -6.906947658999101 29.78909445152668 0  -6.318908394762558 29.56532271577738 0  -6.574031050163925 4.02296889636211 0  -7.418121416076774 4.123158540932232 0  -6.812219357050619 4.358260872804286 0  -7.050245389902903 4.693478653411749 0  -7.180106562058604 3.78789582892942 0  -7.786467208884224 3.552970928240268 0  -6.591312453091277 10.02433458802502 0  -7.42935056737157 10.12407218395864 0  -6.827848709929229 10.35932336229107 0  -7.064210964063959 10.69431410332889 0  -7.192969571616312 9.789107075120285 0  -7.794973116991029 9.553848511987708 0  -6.600110734049084 13.02456297623989 0  -7.434670057006352 12.90788363039094 0  -6.83400051122629 12.68481407511816 0  -7.068103948091675 12.34507204428854 0  -7.200568864605299 13.24765962149759 0  -7.800708335753856 13.47069013778315 0  -6.608981325603507 16.02493747858427 0  -7.440475267759544 15.90799583991535 0  -6.841999606091116 15.6852172102739 0  -7.075239671577503 15.34543550253363 0  -7.207256564017795 16.24768756179975 0  -7.805183554067376 16.47057762345737 0  -6.618223495746169 19.02234191249822 0  -7.446935704185794 19.12250773908094 0  -6.852242880902081 19.35692192689864 0  -7.08603929014532 19.69164388000141 0  -7.213117296025999 18.7877111170285 0  -7.808385560117614 18.5530168968094 0  -6.642460070903445 27.02151035480667 0  -7.462746622363175 27.12198840920095 0  -6.874052867467642 27.35656414538563 0  -7.105458757168838 27.69165242526939 0  -7.231341677416647 26.78676598280657 0  -7.82055434821604 26.55221800863948 0  -8.285920101540285 19.10048175695901 0  -8.047239507722159 18.82671246560929 0  -8.403981317973701 18.27657372765107 0  -8.642703027942575 18.55034351860742 0  -9 17.99999999998495 0  -8.29319477252508 27.10022010503022 0  -8.056956544694147 26.82622212643021 0  -8.41007472510808 26.2760871657165 0  -8.646351603273978 26.55010551691312 0  -9 25.99999999995395 0  -8.282979118212298 15.91349844808635 0  -8.043996951185083 16.19205127254646 0  -8.402796534127656 16.73523675243263 0  -8.641737580059319 16.45671134461928 0  -9 16.99999999998883 0  -5.85094285932558 30.12231814811205 0  -6.08483705393404 29.84379729790328 0  -5.730343053974169 29.29978552404481 0  -5.496455511723913 29.57940474220633 0  -5.140643645120205 29.02321835062261 0  -8.280305011718854 12.91348716962725 0  -8.040424487780696 13.19208380952657 0  -8.400551176748971 13.73535522175772 0  -8.640394470846401 13.45675486478094 0  -9 13.99999999999401 0  -8.277835021299595 10.10121525553686 0  -8.036483488353971 9.8275327730399 0  -8.397287058697327 9.276920578884903 0  -8.638679404393899 9.55060306535713 0  -9 8.99999999999857 0  -8.272690005097999 4.100782634846069 0  -8.029649526259183 3.826895961401386 0  -8.393074746783386 3.276451878256284 0  -8.636136842470654 3.55034331337531 0  -9 2.999999999998668 0  -8.275048252397713 6.913315867955409 0  -8.033408560039513 7.191864964908805 0  -8.396162406989198 7.735218368475071 0  -8.637763674382917 7.456672072892 0  -9 7.999999999999485 0  -8.310345633448641 45.91302826316694 0  -8.080494056682536 46.19156888562687 0  -8.425606043445791 46.73512573718258 0  -8.655417822291145 46.4565876438477 0  -9 46.99999999997333 0  -8.313088020713513 48.91344454680429 0  -8.084168576484421 49.19198961689125 0  -8.42792495074 49.73519881617995 0  -8.656801815846276 49.45668781990221 0  -9 49.99999999997949 0  -5.904243796311089 43.12260554796131 0  -6.134160228291441 42.84373318785327 0  -5.785654410857564 42.2990047390261 0  -5.555757441594065 42.57910739180722 0  -5.205859497009217 42.02225065311571 0  -5.821326856933787 23.94501317844572 0  -6.063845451302609 24.21023043424272 0  -5.713754823141215 24.75477335570159 0  -6.306184209971394 24.47552773441622 0  -5.471402525652175 24.4906551654172 0  -5.121211846685346 25.02299623343981 0  -8.320558234200007 52.09018131461717 0  -8.087444292184303 51.82481772929543 0  -8.426855919785718 51.27982635185601 0  -7.854154734769571 51.55952061089171 0  -8.660018676085491 51.54518863980539 0  -9 50.99999999998153 0  -5.879113330026691 38.11205863050309 0  -6.115214253787404 37.84166234557971 0  -5.766658283326011 37.3023044016651 0  -6.351487975551919 37.57133040689084 0  -5.530562609140289 37.57403733510061 0  -5.180591285822421 37.02121032069441 0  -5.86610002980723 34.94479190471996 0  -6.105240164532296 35.2098412317412 0  -5.760147757188785 35.7540889029458 0  -6.344201012155812 35.4749645573178 0  -5.521158897763299 35.49030952765154 0  -5.176003655388376 36.02187178090087 0  -7.953226653739806 50.51098411522027 0  -7.903651093948896 51.03528231330471 0  -8.476794339569542 50.75543034815323 0  -6.245322945698325 36.52289586683462 0  -6.298430595246717 37.04696981521334 0  -5.713147773351353 36.77614171407598 0  -6.294724947343533 35.99876878431779 0  -5.710972400662971 36.2758579039396 0  -6.069516599846025 25.28515928495056 0  -6.187803552038265 24.88038950669024 0  -5.59563727182163 25.15832873395954 0  -8.05791688001662 25.75415896137739 0  -7.939175539785233 26.1531875740528 0  -8.529032713950214 25.87708346785894 0  -7.028862209325859 34.39284057376747 0  -6.686286017082154 34.93404272795007 0  -6.933143039023112 35.2563009134377 0  -7.27575206418248 34.71529568261965 0  -7.522430107049067 35.03770872414565 0  -7.183955506610534 52.64099184341929 0  -7.518794016362049 52.10038355195822 0  -7.277562878049551 51.77848611678191 0  -6.942748857908973 52.31916924904702 0  -6.701318383936986 51.99741214676256 0  -7.039842204876843 38.64088193032352 0  -6.695911758138174 38.10624180806237 0  -6.939981331533712 37.77943527510605 0  -7.283890235954962 38.31428600552615 0  -7.528147242203792 37.98763673413873 0  -7.000727524688611 23.39296438545832 0  -6.653215325813197 23.9343335058588 0  -6.903566533846687 24.25669903184102 0  -7.251115964917877 23.71549550029148 0  -7.501295560111425 24.03796136585257 0  -7.907299816167945 17.51088329821048 0  -7.857804647858207 18.03198525135512 0  -8.453825940887342 17.75537877727775 0  -7.856273340596958 16.99074314431605 0  -8.453474230694891 17.25547671449361 0  -7.895106655001398 8.511128526938075 0  -7.845009388693152 9.032490801781478 0  -8.447717966488435 8.755566628554595 0  -7.93465063316121 2.425267308856935 0  -7.86049398451121 2.989089990927643 0  -8.467479379977739 2.712665887787326 0  -7.843552780614743 7.990781956760326 0  -8.44738387612496 8.255556460983064 0  -7.904360025886929 49.99075956933212 0  -8.476430588435072 50.25552939892876 0  -6.178574630499348 41.61557135713367 0  -6.271479107609911 42.09032350356875 0 
[...]
<PointData  Vectors="f_27"> 
<DataArray  type="Float64"  Name="f_27"  NumberOfComponents="3" format="ascii">0.0000000000000000e+00 0.0000000000000000e+00 0.0000000000000000e+00  5.1922312645775307e-06 -5.5035360367202456e-03 0.0000000000000000e+00  0.0000000000000000e+00 0.0000000000000000e+00 0.0000000000000000e+00  0.0000000000000000e+00 0.0000000000000000e+00 0.0000000000000000e+00  7.5623658563598569e-07 -7.7163397872652808e-03 0.0000000000000000e+00  1.1557054091151091e-05 -7.9328125608614970e-03 0.0000000000000000e+00  0.0000000000000000e+00 0.0000000000000000e+00 0.0000000000000000e+00  2.4744855697049824e-05 -5.6015508030106635e-03 0.0000000000000000e+00  0.0000000000000000e+00 0.0000000000000000e+00 0.0000000000000000e+00  0.0000000000000000e+00 0.0000000000000000e+00 0.0000000000000000e+00  4.8403182190751388e-05 -7.6882691799813312e-03 0.0000000000000000e+00  3.8490618267383619e-05 -7.9627343621124138e-03 0.0000000000000000e+00  0.0000000000000000e+00 0.0000000000000000e+00 0.0000000000000000e+00  2.5464051892533553e-05 -5.4362290771821252e-03 0.0000000000000000e+00  0.0000000000000000e+00 0.0000000000000000e+00 0.0000000000000000e+00  0.0000000000000000e+00 0.0000000000000000e+00 0.0000000000000000e+00  4.9383637329643316e-05 -7.6130294734308756e-03 0.0000000000000000e+00  4.1618624597169328e-05 -7.8882546941415992e-03 0.0000000000000000e+00  0.0000000000000000e+00 0.0000000000000000e+00 0.0000000000000000e+00  1.1054669946856313e-05 -5.7178596307622485e-03 0.0000000000000000e+00  0.0000000000000000e+00 0.0000000000000000e+00 0.0000000000000000e+00  0.0000000000000000e+00 0.0000000000000000e+00 0.0000000000000000e+00  1.7351795190763168e-05 -7.6555882670284693e-03 0.0000000000000000e+00  2.3679346116704458e-05 -7.9162118574346522e-03 0.0000000000000000e+00  0.0000000000000000e+00 0.0000000000000000e+00 0.0000000000000000e+00  1.7839037351763443e-05 -5.5682682055790880e-03 0.0000000000000000e+00  3.7544065121987709e-05 -7.4705492439209450e-03 0.0000000000000000e+00  3.3420639027749013e-05 -7.7346144449156181e-03 0.0000000000000000e+00  0.0000000000000000e+00 0.0000000000000000e+00 0.0000000000000000e+00  0.0000000000000000e+00 0.0000000000000000e+00 0.0000000000000000e+00  0.0000000000000000e+00 0.0000000000000000e+00 0.0000000000000000e+00  2.4956470540667858e-05 -5.5591992152283169e-03 0.0000000000000000e+00  0.0000000000000000e+00 0.0000000000000000e+00 0.0000000000000000e+00  0.0000000000000000e+00 0.0000000000000000e+00 0.0000000000000000e+00  3.5484513878891128e-05 -7.5527438105257652e-03 0.0000000000000000e+00  3.5742767945631386e-05 -7.7622444591439604e-03 0.0000000000000000e+00  0.0000000000000000e+00 0.0000000000000000e+00 0.0000000000000000e+00  2.2260525025486710e-05 -5.3778019176612367e-03 0.0000000000000000e+00  2.0034170477196946e-05 -7.5688568386647736e-03 0.0000000000000000e+00  2.7870389088445205e-05 -7.8377338181633126e-03 0.0000000000000000e+00  0.0000000000000000e+00 0.0000000000000000e+00 0.0000000000000000e+00  0.0000000000000000e+00 0.0000000000000000e+00 0.0000000000000000e+00  0.0000000000000000e+00 0.0000000000000000e+00 0.0000000000000000e+00  1.6183614055848942e-05 -5.4729632083915791e-03 0.0000000000000000e+00  0.0000000000000000e+00 0.0000000000000000e+00 0.0000000000000000e+00  0.0000000000000000e+00 0.0000000000000000e+00 0.0000000000000000e+00  1.4520766767017416e-05 -7.6613578227361047e-03 0.0000000000000000e+00  2.2288118889262334e-05 -7.8554868814614265e-03 0.0000000000000000e+00  0.0000000000000000e+00 0.0000000000000000e+00 0.0000000000000000e+00  3.2746168035514432e-05 -5.7652304339756155e-03 0.0000000000000000e+00  2.6876076830848661e-05 -7.4976936697904902e-03 0.0000000000000000e+00  3.6963861299250893e-05 -7.7434708087615062e-03 0.0000000000000000e+00  0.0000000000000000e+00 0.0000000000000000e+00 0.0000000000000000e+00  0.0000000000000000e+00 0.0000000000000000e+00 0.0000000000000000e+00  0.0000000000000000e+00 0.0000000000000000e+00 0.0000000000000000e+00  1.6318300295743494e-05 -5.7720461779309099e-03 0.0000000000000000e+00  3.2670864660584808e-05 -7.4983506905193908e-03 0.0000000000000000e+00  2.7965253089695212e-05 -7.7399925450449270e-03 0.0000000000000000e+00  0.0000000000000000e+00 0.0000000000000000e+00 0.0000000000000000e+00  0.0000000000000000e+00 0.0000000000000000e+00 0.0000000000000000e+00  4.9968396511480178e-05 -8.0510362854917181e-03 0.0000000000000000e+00  5.6233913854167763e-05 -8.0583665156197578e-03 0.0000000000000000e+00  4.9890028768469403e-05 -8.0575801678848865e-03 0.0000000000000000e+00  4.7465674131781451e-05 -8.0568499720058157e-03 0.0000000000000000e+00  5.3035721603599001e-05 -8.0575146749292132e-03 0.0000000000000000e+00  5.1620697005231361e-05 -8.0321172596959072e-03 0.0000000000000000e+00  6.4486690151288202e-05 -8.0025184740992548e-03 0.0000000000000000e+00  6.0083114448372058e-05 -8.0025538986465364e-03 0.0000000000000000e+00  6.5141489018489390e-05 -8.0137092598240364e-03 0.0000000000000000e+00  6.3335601734637923e-05 -8.0120911016405526e-03 0.0000000000000000e+00  5.9519000143727360e-05 -8.0083012722532067e-03 0.0000000000000000e+00  5.2800435393827717e-05 -7.9777824777554351e-03 0.0000000000000000e+00  5.6807013367456935e-05 -8.0286548275108772e-03 0.0000000000000000e+00  4.9655924499385939e-05 -8.0323188001165911e-03 0.0000000000000000e+00  5.1854945228214481e-05 -8.0367726882330653e-03 0.0000000000000000e+00  4.5908007322838484e-05 -8.0405120983761853e-03 0.0000000000000000e+00  5.3493642405988632e-05 -8.0303099609283259e-03 0.0000000000000000e+00  4.8161480893647808e-05 -7.9957916207532616e-03 0.0000000000000000e+00  5.3890723635745619e-05 -8.2684794633520933e-03 0.0000000000000000e+00  4.8471343711910351e-05 -8.2755664061662966e-03 0.0000000000000000e+00  5.1488947946241183e-05 -8.2787614462495607e-03 0.0000000000000000e+00  5.1152587583096200e-05 -8.2816856586805949e-03 0.0000000000000000e+00  4.9448184277908164e-05 -8.2750049840767601e-03 0.0000000000000000e+00  4.3604731667464508e-05 -8.2450359931620365e-03 0.0000000000000000e+00  4.6658005142381996e-05 -8.1307023519636493e-03 0.0000000000000000e+00  5.5850235586960573e-05 -8.1251262035983065e-03 0.0000000000000000e+00  4.7514240677679683e-05 -8.1383165911058080e-03 0.0000000000000000e+00  4.5725276082665118e-05 -8.1311686166396641e-03 0.0000000000000000e+00  5.1616686500458451e-05 -8.1337262799219458e-03 0.0000000000000000e+00  5.1877375178499479e-05 -8.1023318818550828e-03 0.0000000000000000e+00  5.8634855726261919e-05 -8.2955777668441040e-03 0.0000000000000000e+00  5.2749598670417872e-05 -8.2905908148458458e-03 0.0000000000000000e+00  5.5529818574327546e-05 -8.2971141901565359e-03 0.0000000000000000e+00  5.3310564087384851e-05 -8.2939099817285322e-03 0.0000000000000000e+00  5.4077118363664001e-05 -8.2932185592982880e-03 0.0000000000000000e+00  5.2621741264297431e-05 -8.2618885904798735e-03 0.0000000000000000e+00  5.6212727742034687e-05 -8.2578467661488728e-03 0.0000000000000000e+00  5.2014843085919973e-05 -8.2577253676707381e-03 0.0000000000000000e+00  5.2361629425307091e-05 -8.2607292761235299e-03 0.0000000000000000e+00  5.1187900035128779e-05 -8.2582194456627608e-03 0.0000000000000000e+00  5.5587779152123918e-05 -8.2607951422353203e-03 0.0000000000000000e+00  5.6602720021798624e-05 -8.2288872461089187e-03 0.0000000000000000e+00  5.2790622146073281e-05 -8.2334883641727273e-03 0.0000000000000000e+00  4.8692040046862772e-05 -8.2413782078401832e-03 0.0000000000000000e+00  5.0927781820295863e-05 -8.2440659005658407e-03 0.0000000000000000e+00  5.1068361262704430e-05 -8.2470983863657307e-03 0.0000000000000000e+00  4.8987750551733757e-05 -8.2395834480171702e-03 0.0000000000000000e+00  4.4333162938782350e-05 -8.2075827458987800e-03 0.0000000000000000e+00  6.0658512615518116e-05 -8.2167142201564798e-03 0.0000000000000000e+00  5.6064040921531196e-05 -8.2162837398969610e-03 0.0000000000000000e+00  6.1041787154305266e-05 -8.2270424947657461e-03 0.0000000000000000e+00  5.9005345424419769e-05 -8.2247575075694197e-03 0.0000000000000000e+00  5.5497265200178340e-05 -8.2231160735233080e-03 0.0000000000000000e+00  4.8903302414428551e-05 -8.1927766470929787e-03 0.0000000000000000e+00  6.7048926509569572e-05 -8.1919273418757620e-03 0.0000000000000000e+00  5.4101469422842471e-05 -8.1966440318323626e-03 0.0000000000000000e+00  6.1315355498211657e-05 -8.2040573647919734e-03 0.0000000000000000e+00  5.1436091257758051e-05 -8.1973989509777200e-03 0.0000000000000000e+00  6.0352748385905230e-05 -8.2050433846940843e-03 0.0000000000000000e+00  5.8432586964010903e-05 -8.1765565645725916e-03 0.0000000000000000e+00  6.4270220900394906e-05 -8.1503236715567626e-03 0.0000000000000000e+00  5.4151973058506916e-05 -8.1558376105129882e-03 0.0000000000000000e+00  6.0285448546978317e-05 -8.1579629237155636e-03 0.0000000000000000e+00  5.2589203184025893e-05 -8.1528830146300416e-03 0.0000000000000000e+00  5.5984359806119548e-05 -8.1570074189272358e-03 0.0000000000000000e+00  5.2275946322579228e-05 -8.1295268146098706e-03 0.0000000000000000e+00  4.1079407761864554e-05 -7.6894757991653514e-03 0.0000000000000000e+00  5.1771821310656755e-05 -8.1279499114035782e-03 0.0000000000000000e+00  5.7153783503230970e-05 -7.7825771130309966e-03 0.0000000000000000e+00  3.6562633996613651e-05 -5.5294141329763763e-03 0.0000000000000000e+00  0.0000000000000000e+00 0.0000000000000000e+00 0.0000000000000000e+00  4.2033926554150782e-05 -7.6399465416492271e-03 0.0000000000000000e+00  4.7440877563027535e-05 -8.0748852854545163e-03 0.0000000000000000e+00  4.8402430961497474e-05 -7.7326536765454481e-03 0.0000000000000000e+00  3.2632218403368431e-05 -5.4718942218611845e-03 0.0000000000000000e+00  0.0000000000000000e+00 0.0000000000000000e+00 0.0000000000000000e+00  4.5558538807361575e-05 -7.7120934698213127e-03 0.0000000000000000e+00  4.3475515483014509e-05 -8.1388712512992459e-03 0.0000000000000000e+00  3.6217499824559355e-05 -7.8397835347503685e-03 0.0000000000000000e+00  2.2324382246260210e-05 -5.4850302281630996e-03 0.0000000000000000e+00  0.0000000000000000e+00 0.0000000000000000e+00 0.0000000000000000e+00  5.4907769035540627e-05 -7.6157531125834160e-03 0.0000000000000000e+00  7.8089358998478450e-05 -8.0451283148598330e-03 0.0000000000000000e+00  3.6891680402575125e-05 -7.7424011457475376e-03 0.0000000000000000e+00  2.6310218891093386e-05 -5.4864487307145337e-03 0.0000000000000000e+00  0.0000000000000000e+00 0.0000000000000000e+00 0.0000000000000000e+00  4.4020783101918234e-05 -7.7239755538232729e-03 0.0000000000000000e+00  4.2288338168812918e-05 -8.1551457256427741e-03 0.0000000000000000e+00  3.6177267639844175e-05 -7.8094481295153274e-03 0.0000000000000000e+00  2.6395548114137123e-05 -5.5515788128198120e-03 0.0000000000000000e+00  0.0000000000000000e+00 0.0000000000000000e+00 0.0000000000000000e+00  4.5675520499965955e-05 -7.7396284286161410e-03 0.0000000000000000e+00  5.2665942771264219e-05 -8.1754509739145418e-03 0.0000000000000000e+00  5.7285843268816122e-05 -7.8276380157779046e-03 0.0000000000000000e+00  3.8330079918602410e-05 -5.5772139908869221e-03 0.0000000000000000e+00  0.0000000000000000e+00 0.0000000000000000e+00 0.0000000000000000e+00  4.5419180195682337e-05 -7.7792636785459579e-03 0.0000000000000000e+00  5.0434493605839293e-05 -8.2023320410384345e-03 0.0000000000000000e+00  5.3630563182029332e-05 -7.9048670854339597e-03 0.0000000000000000e+00  3.9328430410773998e-05 -5.5548391915095198e-03 0.0000000000000000e+00  0.0000000000000000e+00 0.0000000000000000e+00 0.0000000000000000e+00  4.0172538009717256e-05 -7.7674946962885370e-03 0.0000000000000000e+00  3.8451278637069169e-05 -8.1886666828762007e-03 0.0000000000000000e+00  3.2542540402851111e-05 -7.8863641996419608e-03 0.0000000000000000e+00  1.9745641120748035e-05 -5.5364647395674772e-03 0.0000000000000000e+00  0.0000000000000000e+00 0.0000000000000000e+00 0.0000000000000000e+00  4.5654289566378451e-05 -7.5049476663562060e-03 0.0000000000000000e+00  4.5090671281655971e-05 -7.9399327907997315e-03 0.0000000000000000e+00  3.9798224739493333e-05 -7.6041023152701864e-03 0.0000000000000000e+00  2.7814020279765153e-05 -5.3396330527534933e-03 0.0000000000000000e+00  0.0000000000000000e+00 0.0000000000000000e+00 0.0000000000000000e+00  4.8749863785961185e-05 -7.4929893481804665e-03 0.0000000000000000e+00  4.7426729205309447e-05 -7.9219626076268181e-03 0.0000000000000000e+00  4.0422487432048168e-05 -7.6310150751629467e-03 0.0000000000000000e+00  2.5234281529184001e-05 -5.2742240698295997e-03 0.0000000000000000e+00  0.0000000000000000e+00 0.0000000000000000e+00 0.0000000000000000e+00  5.4150734066927003e-05 -7.5419635481733735e-03 0.0000000000000000e+00  7.7791259943057247e-05 -7.9739758482272518e-03 0.0000000000000000e+00  3.2530258064397524e-05 -7.6724162102224172e-03 0.0000000000000000e+00  2.5757098929754746e-05 -5.4122227686265690e-03 0.0000000000000000e+00  0.0000000000000000e+00 0.0000000000000000e+00 0.0000000000000000e+00  5.9480551865863689e-05 -7.6884306684840984e-03 0.0000000000000000e+00  7.9313956768671090e-05 -8.1000276895581286e-03 0.0000000000000000e+00  4.6473315445499535e-05 -7.7137497857681665e-03 0.0000000000000000e+00  5.6810575579637764e-05 -8.1435446051933875e-03 0.0000000000000000e+00  3.4170115233203967e-05 -5.4633574961353362e-03 0.0000000000000000e+00  0.0000000000000000e+00 0.0000000000000000e+00 0.0000000000000000e+00  4.6071963390219582e-05 -7.5012748414808256e-03 0.0000000000000000e+00  5.4453185366021708e-05 -7.9118520290882392e-03 0.0000000000000000e+00  5.8161521240154467e-05 -7.5720144321459694e-03 0.0000000000000000e+00  5.7899161881464792e-05 -7.9556349568271952e-03 0.0000000000000000e+00  3.7065608884787369e-05 -5.3336566852425415e-03 0.0000000000000000e+00  0.0000000000000000e+00 0.0000000000000000e+00 0.0000000000000000e+00  5.8171837206359403e-05 -7.6044991867488367e-03 0.0000000000000000e+00  7.4171401698245595e-05 -8.0014941496072359e-03 0.0000000000000000e+00  2.5623742657142152e-05 -7.6981362979738135e-03 0.0000000000000000e+00  4.8911950297333784e-05 -8.0498183550746592e-03 0.0000000000000000e+00  2.6997853660179599e-05 -5.4684685583928196e-03 0.0000000000000000e+00  0.0000000000000000e+00 0.0000000000000000e+00 0.0000000000000000e+00  6.6176700185800627e-05 -7.6266489600798869e-03 0.0000000000000000e+00  8.7367535693471020e-05 -8.0239115964005452e-03 0.0000000000000000e+00  4.9574323754362264e-05 -7.7007248264869960e-03 0.0000000000000000e+00  6.0889975552224248e-05 -8.0744826517514506e-03 0.0000000000000000e+00  3.9966184897691318e-05 -5.3337825983803388e-03 0.0000000000000000e+00  0.0000000000000000e+00 0.0000000000000000e+00 0.0000000000000000e+00  5.1982986286370024e-05 -7.6576388338744803e-03 0.0000000000000000e+00  5.8706134113185777e-05 -7.9602592463771868e-03 0.0000000000000000e+00  5.9684157196952469e-05 -7.3724299200837876e-03 0.0000000000000000e+00  1.1495692213854017e-05 -7.7543550142572673e-03 0.0000000000000000e+00  3.1727010684921904e-05 -8.0544920918980602e-03 0.0000000000000000e+00  -2.1736494625131424e-05 -7.4746240898645984e-03 0.0000000000000000e+00  4.5487445060293476e-05 -8.0294801368128686e-03 0.0000000000000000e+00  -1.4979750172755695e-05 -5.1635487523208094e-03 0.0000000000000000e+00  2.0584868783599811e-05 -7.9105692516684457e-03 0.0000000000000000e+00  4.3594885985098895e-05 -8.1367058594813014e-03 0.0000000000000000e+00  1.3647836355729889e-06 -7.5972371059170631e-03 0.0000000000000000e+00  4.5504942960257366e-05 -7.8738884399586415e-03 0.0000000000000000e+00  4.8683576353272875e-05 -8.1248406949234464e-03 0.0000000000000000e+00  4.8477199163744426e-05 -7.5796499415397133e-03 0.0000000000000000e+00  5.5614798670569580e-05 -8.1096047461814477e-03 0.0000000000000000e+00  6.5693594162011308e-05 -8.0992917325448752e-03 0.0000000000000000e+00  5.6773642753003891e-05 -8.1086200405148818e-03 0.0000000000000000e+00  5.6641112980499720e-05 -8.1098907988292456e-03 0.0000000000000000e+00  5.1551232113143954e-05 -8.1006027557850042e-03 0.0000000000000000e+00  5.7067226486711243e-05 -7.9732339122345688e-03 0.0000000000000000e+00  5.2771742802427396e-05 -7.9684842427565263e-03 0.0000000000000000e+00  5.8494946217515940e-05 -7.9845161599095445e-03 0.0000000000000000e+00  6.0517727868465373e-05 -7.9816411743236556e-03 0.0000000000000000e+00  5.9918074747748428e-05 -7.9703673679498467e-03 0.0000000000000000e+00  5.1283224764705454e-05 -8.0814917626049979e-03 0.0000000000000000e+00  6.1398468983177255e-05 -8.0717402840683669e-03 0.0000000000000000e+00  5.0743864852687870e-05 -8.0826494371500808e-03 0.0000000000000000e+00  5.1454272074950560e-05 -8.0850935742630501e-03 0.0000000000000000e+00  4.5911905110340221e-05 -8.0796265642886292e-03 0.0000000000000000e+00  5.1307125622523894e-05 -8.1788712536827648e-03 0.0000000000000000e+00  6.0803420403248279e-05 -8.1713847896369204e-03 0.0000000000000000e+00  5.2562607225667022e-05 -8.1783883200620220e-03 0.0000000000000000e+00  5.2333565800997629e-05 -8.1786152499636906e-03 0.0000000000000000e+00  4.6692089157097896e-05 -8.1656503438819576e-03 0.0000000000000000e+00  4.9935072625598713e-05 -7.8743630017432693e-03 0.0000000000000000e+00  5.7916356248946974e-05 -8.1787851042576399e-03 0.0000000000000000e+00  5.9439739394648249e-05 -7.5915152365766585e-03 0.0000000000000000e+00  4.4749307525483643e-05 -8.1524374927196934e-03 0.0000000000000000e+00  2.8420853726277368e-05 -5.2634358893853790e-03 0.0000000000000000e+00  4.7852325404819249e-05 -7.9249312736051070e-03 0.0000000000000000e+00  5.6115465105555720e-05 -8.2283877848635025e-03 0.0000000000000000e+00  5.8920073314887817e-05 -7.6390573996685468e-03 0.0000000000000000e+00  4.6508149806202934e-05 -8.0056748784781868e-03 0.0000000000000000e+00  5.0449987286411266e-05 -8.2285194141072243e-03 0.0000000000000000e+00  3.1013832082301060e-05 -5.3807069560482222e-03 0.0000000000000000e+00  4.1055307516326977e-05 -8.2027289558918165e-03 0.0000000000000000e+00  2.7145295813081856e-05 -5.3068806444608986e-03 0.0000000000000000e+00  4.8187239041981262e-05 -7.9351450394969155e-03 0.0000000000000000e+00  3.0313623141970359e-05 -5.0778671439571880e-03 0.0000000000000000e+00  9.0875625686846751e-06 -7.7724719553529508e-03 0.0000000000000000e+00  3.8817800703999446e-05 -8.0365326058107998e-03 0.0000000000000000e+00  -1.1328588197026849e-05 -7.4588163705841181e-03 0.0000000000000000e+00  4.5498098192980023e-05 -8.1742185122633728e-03 0.0000000000000000e+00  4.9322610875617695e-05 -8.1794674994931510e-03 0.0000000000000000e+00  4.7672481928399091e-05 -8.1768064864255023e-03 0.0000000000000000e+00  5.8484472458714456e-05 -7.9912775588588982e-03 0.0000000000000000e+00  5.9135663189508710e-05 -7.9938646370200667e-03 0.0000000000000000e+00  5.8186761233148871e-05 -7.9886122119030064e-03 0.0000000000000000e+00  4.3566859212183860e-05 -8.0874941001265171e-03 0.0000000000000000e+00  4.3987939290688934e-05 -8.0866360700631093e-03 0.0000000000000000e+00  4.6697161022190756e-05 -8.0879427544090863e-03 0.0000000000000000e+00  4.9172266374270497e-05 -8.1055206906723177e-03 0.0000000000000000e+00  5.2177558324019381e-05 -8.1073855074990514e-03 0.0000000000000000e+00  5.2187025285141053e-05 -8.1076884165047578e-03 0.0000000000000000e+00  1.3735285092709966e-05 -7.8598325554743130e-03 0.0000000000000000e+00  3.9585798887784886e-05 -8.1041662435535206e-03 0.0000000000000000e+00  -1.3823819880825294e-05 -7.5494825227543560e-03 0.0000000000000000e+00  5.0572334608746726e-05 -8.0284284787843167e-03 0.0000000000000000e+00  6.1120167238654170e-05 -8.0229424317778616e-03 0.0000000000000000e+00  5.2032535388979670e-05 -8.0605111785326672e-03 0.0000000000000000e+00  5.9070297385135582e-05 -7.7992329558705838e-03 0.0000000000000000e+00  5.5992993339561697e-05 -7.9635439960490662e-03 0.0000000000000000e+00  6.1461773457973843e-05 -8.0034539570299247e-03 0.0000000000000000e+00  4.7107805745892568e-05 -8.0056029494464716e-03 0.0000000000000000e+00  4.8184257549136970e-05 -7.9909043903094289e-03 0.0000000000000000e+00  4.7383920837745482e-05 -8.0339618328033671e-03 0.0000