<?xml version="1.0"?>
<VTKFile type="UnstructuredGrid"  version="0.1"  >
<UnstructuredGrid>
<Piece  NumberOfPoints="2690" NumberOfCells="4864">
<Points>
<DataArray  type="Float64"  NumberOfComponents="3"  format="ascii">-5.047984373072643 22.01052843245931 0  -5.642602126160271 21.27313034967433 0  -5.047030530876242 21.51139158589939 0  -5.045923385972054 21.01058944605708 0  -5.643542992831989 21.77332086253379 0  -6.23912120827581 21.53441376551646 0  -9 21.99999999996945 0  -8.403880767732952 21.26470012652125 0  -9 21.49999999997139 0  -9 20.99999999997333 0  -8.404047966465884 21.76468781950526 0  -7.80793837105856 21.52934816048597 0  -9 32.9999999999446 0  -8.407547817285161 32.26466593066574 0  -9 32.49999999994358 0  -9 31.99999999994255 0  -8.407714979567183 32.7646690544182 0  -7.815271592928384 32.52931324938014 0  -5.072320817388857 33.01138434311097 0  -5.581345897035705 32.30762231821317 0  -5.071322178996689 32.51289472950571 0  -5.07015612471911 32.01101879901517 0  -5.582316937648489 32.80791298468359 0  -6.092332716500156 32.60281083393525 0  -5.119318536903303 54.01086378999487 0  -5.705775704125024 54.74785744527151 0  -5.704848788736358 54.24830974844602 0  -6.290257060808575 54.48416326925823 0  -5.1203912527682 54.51165832663909 0  -5.121370264042556 55.01097789869934 0  -9 54.99999999998974 0  -8.485811754070861 54.29797252347276 0  -9 54.49999999998872 0  -9 53.99999999998769 0  -8.485957853819462 54.7979277452282 0  -7.971799558871204 54.59586984249867 0  -9 39.99999999995897 0  -8.410386425936007 40.73963200632158 0  -8.410219250240972 40.23963425311412 0  -7.82059801625246 40.4792372579047 0  -9 40.49999999996 0  -9 40.99999999996102 0  -5.090093771883414 41.01008131288135 0  -5.652248220435245 40.2786659944781 0  -5.089105007750471 40.51171025158263 0  -5.088025595465095 40.01135055761964 0  -5.653191145959798 40.77849495591163 0  -6.216338183179355 40.5450690457517 0  -9 55.99999999999179 0  -8.43977888887483 56.7453011345284 0  -8.439634324619917 56.24527294084466 0  -7.879420055138338 56.49054507985519 0  -9 56.49999999999282 0  -9 56.99999999999384 0  -5.123787609052327 56.01038088221884 0  -5.685502765834668 56.75373636342599 0  -5.684585251730272 56.25369262441437 0  -6.245229144853139 56.49570003071199 0  -5.124927411986327 56.51200686664209 0  -5.125902876878071 57.01100934832008 0  -7.474463060664483 43.00596029246292 0  -6.646794010204252 43.11748014872168 0  -7.241935792542935 43.34430838360171 0  -7.009495884080962 43.68266499369306 0  -6.879234054298878 42.77906714768952 0  -6.283852658419205 42.55217629680821 0  -6.628235525780652 49.01124566301389 0  -7.453151620284403 48.89909543445703 0  -6.859885951469225 48.67281797352402 0  -7.091632475613477 48.33435688077493 0  -7.221412831756311 49.23750052884998 0  -7.814431997673973 49.46383602738651 0  -6.624172151170284 46.01056397200014 0  -7.450503477152027 45.89865581166121 0  -6.856231201062874 45.67201404704842 0  -7.088382313691645 45.33351853979947 0  -7.218358748344262 46.23714371391348 0  -7.812392524832545 46.46368372632529 0  -6.571697947794758 7.010941884598671 0  -7.416283731001925 6.89895297975287 0  -6.80889505951794 6.672508218556612 0  -7.046184499009748 6.334077198061768 0  -7.179000734155903 7.237382505445503 0  -7.786151749899366 7.463814922539846 0  -7.463190991493235 30.00589302019347 0  -6.629402383388409 30.11733105663037 0  -7.228946407261692 30.3440802525575 0  -6.994791045828079 30.68223125274417 0  -6.863560745571716 29.77910883979226 0  -6.263775213407707 29.55238259489825 0  -6.567808000101905 4.010418805562828 0  -7.413948839662261 4.114968392039832 0  -6.806177600398399 4.346828493544982 0  -7.044466435756344 4.683203710657632 0  -7.17566538201733 3.778571680030155 0  -7.783653529345411 3.546793233166066 0  -6.575672228500193 10.0110371488013 0  -7.419058808660129 10.1153817375427 0  -6.81328402805614 10.34730879659967 0  -7.050812125000579 10.68358081003309 0  -7.18152398762649 9.779120264484032 0  -7.787529920178023 9.547190702516637 0  -6.579656517308893 13.01113293641393 0  -7.421468925868601 12.89910687105706 0  -6.816070026984534 12.67270288092984 0  -7.052575294196982 12.33427641059382 0  -7.184967280308928 13.23754960409411 0  -7.790129129883725 13.46393489621518 0  -6.583660250469562 16.01130334680355 0  -7.424083458250135 15.8991565978216 0  -6.819680540636567 15.6728857316494 0  -7.055794441900087 15.33444079268141 0  -7.187976713935261 16.23756094001984 0  -7.792138660287493 16.46388228505676 0  -6.587735170067142 19.01012285528634 0  -7.426932968512153 19.11466810663407 0  -6.824190944201201 19.34621380737844 0  -7.060552619475463 19.6823685220579 0  -7.190563857715272 18.77848087819973 0  -7.793552383727651 18.54680955199445 0  -6.598514600916268 27.00974445117783 0  -7.433963288733936 27.11443101508824 0  -6.8339042995848 27.3460486694072 0  -7.06920699907823 27.68236810465214 0  -7.19865722052717 26.77805177076874 0  -7.798951715777501 26.54644759875159 0  -8.276733656477518 19.09688331763437 0  -8.035180884350389 18.82182976761501 0  -8.396683653453321 18.2734342033225 0  -8.638254542795739 18.54848779908943 0  -9 17.99999999998495 0  -8.279967019310007 27.09676404474957 0  -8.039496301582025 26.82160713835105 0  -8.399385118434486 26.27321411004978 0  -8.63987346498933 26.54838005166991 0  -9 25.99999999995395 0  -8.275435703246787 15.90945253384914 0  -8.033749778686241 16.18667340134719 0  -8.396160547836027 16.73191727321485 0  -8.637828369260186 16.45470892811352 0  -9 16.99999999998883 0  -5.784816051071196 30.10677628532618 0  -6.02425574334134 29.82956648190713 0  -5.663750099094978 29.28393023109392 0  -5.42429193263648 29.56163532808402 0  -5.063361972843478 29.01051373213903 0  -8.274232673910653 12.90944834162353 0  -8.032143950320622 13.18668940523765 0  -8.395154259569575 13.73197203801903 0  -8.637225599943951 13.45472927790091 0  -9 13.99999999999401 0  -8.273113379545721 10.09721766152641 0  -8.03035799654578 9.822204619365552 0  -8.39367497165194 9.273593615007094 0  -8.636448344840744 9.548606734789038 0  -9 8.99999999999857 0  -8.270771671592176 4.097022027066895 0  -8.02724563111402 3.821916416027546 0  -8.391754070889577 3.273381338527928 0  -8.635289608690183 3.548489167517538 0  -9 2.999999999998668 0  -8.271849760173183 6.909371334786345 0  -8.028963992173557 7.186591035101381 0  -8.393165165791245 7.731910603685336 0  -8.636033198380094 7.454692089966544 0  -9 7.999999999999485 0  -8.287582846942339 45.90923441534444 0  -8.049950511280588 46.18644682036074 0  -8.406287091377223 46.73186101651389 0  -8.643901413713833 46.45464969385859 0  -9 46.99999999997333 0  -8.288800720382159 48.90941838999344 0  -8.051578244968745 49.18663313662388 0  -8.407308631165773 49.73189326508047 0  -8.64451279044717 49.45469387004276 0  -9 49.99999999997949 0  -5.808417941846071 43.10690421597764 0  -6.046094658623312 42.82953593312891 0  -5.688231101548581 42.28357749593046 0  -5.450539100283155 42.5614988722621 0  -5.092233475282489 42.01008704852616 0  -5.768987336223331 23.92932083700207 0  -6.014940218810366 24.19591990124665 0  -5.657707801046818 24.739004047162 0  -6.260814086784721 24.46255366780955 0  -5.411808848446629 24.47290389453147 0  -5.054714726581174 25.01046734680603 0  -8.294718819468994 52.08662233154313 0  -8.052949373834256 51.81995952909079 0  -8.405457201842829 51.27669229810907 0  -7.811104537764699 51.55332645132107 0  -8.647247876305586 51.54335446492536 0  -9 50.99999999998153 0  -5.794660205420316 38.096531484276 0  -6.037760175646233 37.82758710870135 0  -5.681209200565965 37.28685559336257 0  -6.280938145795495 37.55867949667164 0  -5.438088465036954 37.55639779658951 0  -5.081082088145354 37.00961853302314 0  -5.788905417246198 34.92921903369783 0  -6.033350619128969 35.19574281761813 0  -5.678336540423462 35.73869589678296 0  -6.277716988631667 35.46229995782291 0  -5.433938371162238 35.47274518732038 0  -5.07907971863173 36.0099936976775 0  -7.914828094461005 50.50506350974632 0  -7.862950049756273 51.02920826478661 0  -8.457492483413185 50.75250401821746 0  -6.174185986061033 36.51039551967547 0  -6.227573888702719 37.03447197667836 0  -5.627664542277914 36.76187221696053 0  -6.225937596766572 35.98627987544908 0  -5.626716583161634 36.26175819732682 0  -6.018494128218065 25.27139177696093 0  -6.139631017555343 24.86699573751867 0  -5.536656686520796 25.14285137979082 0  -8.041198994828104 25.7495967426407 0  -7.920048382596343 26.14802182103082 0  -8.520633180807172 25.87480008865431 0  -6.981157358837153 34.38357807125525 0  -6.629327983278597 34.92299850803078 0  -6.881752333918669 35.24651219716191 0  -7.233594836220083 34.70717838218712 0  -7.485938800586414 35.03076004993252 0  -7.114031056238495 52.63175434587641 0  -7.462457122353839 52.09259644812681 0  -7.21253496086622 51.76924579262617 0  -6.864120134545817 52.30843565537825 0  -6.614113769565049 51.98514732348008 0  -6.986016491128217 38.63170764531005 0  -6.63358625798861 38.09525409213298 0  -6.884777161583627 37.76968357251905 0  -7.237195955206435 38.30622912128075 0  -7.488468425410219 37.98072815939328 0  -6.968639881330777 23.38363441886989 0  -6.614619115666013 23.92313056839553 0  -6.868602318489658 24.24669177390649 0  -7.22263716314529 23.70726905403869 0  -7.476541661786214 24.03087418199933 0  -7.894544793600897 17.50493134195675 0  -7.844032820069526 18.02588614128154 0  -8.447350099624401 17.75243700123043 0  -7.843356228571119 16.98441256473964 0  -8.447194776115619 17.25248151744685 0  -7.88904877168169 8.505045990523282 0  -7.838275062036922 9.026119344547306 0  -8.444599667985711 8.752524123284291 0  -7.932812229492076 2.419981025390004 0  -7.85820227052625 2.983373797750805 0  -8.466477364020713 2.710005323231883 0  -7.837614908867538 7.984433219218433 0  -8.44444823372913 8.252519443382251 0  -7.864645138154095 49.98445600560847 0  -8.457335065728591 50.25254805754346 0  -6.09462060922371 41.60330870019289 0  -6.18926135684185 42.07778761076138 0
[...]
<PointData  Vectors="f_27"> 
<DataArray  type="Float64"  Name="f_27"  NumberOfComponents="3" format="ascii">0.0000000000000000e+00 0.0000000000000000e+00 0.0000000000000000e+00  4.3613031712357265e-06 -9.0906430816360597e-03 0.0000000000000000e+00  0.0000000000000000e+00 0.0000000000000000e+00 0.0000000000000000e+00  0.0000000000000000e+00 0.0000000000000000e+00 0.0000000000000000e+00  -1.0367114294809295e-05 -1.2735334317085888e-02 0.0000000000000000e+00  5.5103547804274142e-06 -1.3103588454378388e-02 0.0000000000000000e+00  0.0000000000000000e+00 0.0000000000000000e+00 0.0000000000000000e+00  2.0208564118489613e-05 -9.2556919523725644e-03 0.0000000000000000e+00  0.0000000000000000e+00 0.0000000000000000e+00 0.0000000000000000e+00  0.0000000000000000e+00 0.0000000000000000e+00 0.0000000000000000e+00  5.1048554261343104e-05 -1.2705287509496659e-02 0.0000000000000000e+00  3.5601382671349151e-05 -1.3157422467526160e-02 0.0000000000000000e+00  0.0000000000000000e+00 0.0000000000000000e+00 0.0000000000000000e+00  1.9738631121297296e-05 -9.0410107719132802e-03 0.0000000000000000e+00  0.0000000000000000e+00 0.0000000000000000e+00 0.0000000000000000e+00  0.0000000000000000e+00 0.0000000000000000e+00 0.0000000000000000e+00  5.0403744113290969e-05 -1.2648960369388848e-02 0.0000000000000000e+00  3.6394277986622854e-05 -1.3102132907112157e-02 0.0000000000000000e+00  0.0000000000000000e+00 0.0000000000000000e+00 0.0000000000000000e+00  6.8885371955526015e-06 -9.4976719052159986e-03 0.0000000000000000e+00  0.0000000000000000e+00 0.0000000000000000e+00 0.0000000000000000e+00  0.0000000000000000e+00 0.0000000000000000e+00 0.0000000000000000e+00  4.5545006581205656e-06 -1.2705387819180727e-02 0.0000000000000000e+00  1.4358589746334177e-05 -1.3138844336120267e-02 0.0000000000000000e+00  0.0000000000000000e+00 0.0000000000000000e+00 0.0000000000000000e+00  1.5618001441846105e-05 -9.3826962686354622e-03 0.0000000000000000e+00  4.4990593336505533e-05 -1.2571940253599506e-02 0.0000000000000000e+00  3.1230574188366278e-05 -1.3005497286899490e-02 0.0000000000000000e+00  0.0000000000000000e+00 0.0000000000000000e+00 0.0000000000000000e+00  0.0000000000000000e+00 0.0000000000000000e+00 0.0000000000000000e+00  0.0000000000000000e+00 0.0000000000000000e+00 0.0000000000000000e+00  1.6471111797911849e-05 -9.3667684995817693e-03 0.0000000000000000e+00  0.0000000000000000e+00 0.0000000000000000e+00 0.0000000000000000e+00  0.0000000000000000e+00 0.0000000000000000e+00 0.0000000000000000e+00  2.6876632373342318e-05 -1.2692770579556365e-02 0.0000000000000000e+00  2.5962453455509480e-05 -1.3040251353673980e-02 0.0000000000000000e+00  0.0000000000000000e+00 0.0000000000000000e+00 0.0000000000000000e+00  1.4848270546604086e-05 -8.9881264665053300e-03 0.0000000000000000e+00  1.9587039236287824e-07 -1.2620043396768860e-02 0.0000000000000000e+00  1.3825105070728155e-05 -1.3065259191464555e-02 0.0000000000000000e+00  0.0000000000000000e+00 0.0000000000000000e+00 0.0000000000000000e+00  0.0000000000000000e+00 0.0000000000000000e+00 0.0000000000000000e+00  0.0000000000000000e+00 0.0000000000000000e+00 0.0000000000000000e+00  1.8051839205057697e-05 -9.1516860391104692e-03 0.0000000000000000e+00  0.0000000000000000e+00 0.0000000000000000e+00 0.0000000000000000e+00  0.0000000000000000e+00 0.0000000000000000e+00 0.0000000000000000e+00  6.8617925869149422e-06 -1.2766023743972841e-02 0.0000000000000000e+00  1.6820714123405915e-05 -1.3094898716162734e-02 0.0000000000000000e+00  0.0000000000000000e+00 0.0000000000000000e+00 0.0000000000000000e+00  2.8055521439756348e-05 -9.7245775808445546e-03 0.0000000000000000e+00  1.1756470175315923e-05 -1.2613129496365174e-02 0.0000000000000000e+00  2.7189165437576212e-05 -1.3024067930456580e-02 0.0000000000000000e+00  0.0000000000000000e+00 0.0000000000000000e+00 0.0000000000000000e+00  0.0000000000000000e+00 0.0000000000000000e+00 0.0000000000000000e+00  0.0000000000000000e+00 0.0000000000000000e+00 0.0000000000000000e+00  6.8799076843821231e-06 -9.7285908805409983e-03 0.0000000000000000e+00  3.0593553935502241e-05 -1.2612309920567629e-02 0.0000000000000000e+00  1.8771627932356723e-05 -1.3018866183995229e-02 0.0000000000000000e+00  0.0000000000000000e+00 0.0000000000000000e+00 0.0000000000000000e+00  0.0000000000000000e+00 0.0000000000000000e+00 0.0000000000000000e+00  3.6053135955566136e-05 -1.3433351923567914e-02 0.0000000000000000e+00  3.9533821220890616e-05 -1.3443650625654131e-02 0.0000000000000000e+00  3.4813785523994769e-05 -1.3444305996282086e-02 0.0000000000000000e+00  3.2853606794688733e-05 -1.3444438140230873e-02 0.0000000000000000e+00  3.7149651112482113e-05 -1.3443190691379741e-02 0.0000000000000000e+00  3.1409301970201669e-05 -1.3396096729881428e-02 0.0000000000000000e+00  4.6602326904758707e-05 -1.3397658134843898e-02 0.0000000000000000e+00  4.3188615898889263e-05 -1.3392548091412895e-02 0.0000000000000000e+00  4.7037520460094500e-05 -1.3410289334947461e-02 0.0000000000000000e+00  4.6048202687350109e-05 -1.3404330925863517e-02 0.0000000000000000e+00  4.2225401704245723e-05 -1.3406003398464929e-02 0.0000000000000000e+00  3.4456725861118055e-05 -1.3356201067547160e-02 0.0000000000000000e+00  3.6608979105748401e-05 -1.3415241248963245e-02 0.0000000000000000e+00  3.2627208426817741e-05 -1.3421972722867929e-02 0.0000000000000000e+00  3.2856406978068513e-05 -1.3427571953980833e-02 0.0000000000000000e+00  2.9519945286233038e-05 -1.3431512535935572e-02 0.0000000000000000e+00  3.4888364900117448e-05 -1.3419923176353861e-02 0.0000000000000000e+00  2.9459297515184930e-05 -1.3367070452249157e-02 0.0000000000000000e+00  3.7152799386611219e-05 -1.3579855255833150e-02 0.0000000000000000e+00  3.2918877090997899e-05 -1.3588796005606066e-02 0.0000000000000000e+00  3.5102870939781310e-05 -1.3593085411865937e-02 0.0000000000000000e+00  3.5777091814184605e-05 -1.3595384167558830e-02 0.0000000000000000e+00  3.3428999536736927e-05 -1.3589130530198041e-02 0.0000000000000000e+00  2.6907281867520703e-05 -1.3541766728102998e-02 0.0000000000000000e+00  3.1560792126107792e-05 -1.3483007449584632e-02 0.0000000000000000e+00  4.0375766314680120e-05 -1.3478134967926346e-02 0.0000000000000000e+00  3.1890768018340264e-05 -1.3497857430498948e-02 0.0000000000000000e+00  3.1428103590252138e-05 -1.3488165353670636e-02 0.0000000000000000e+00  3.6339621708636259e-05 -1.3490657761303718e-02 0.0000000000000000e+00  3.4745324107352535e-05 -1.3438223730036740e-02 0.0000000000000000e+00  4.2823577201316799e-05 -1.3599957242366805e-02 0.0000000000000000e+00  3.9994763681983323e-05 -1.3601366619133795e-02 0.0000000000000000e+00  4.1726423150522197e-05 -1.3607389090609283e-02 0.0000000000000000e+00  3.9694951066696890e-05 -1.3605031926194179e-02 0.0000000000000000e+00  4.0518728890089501e-05 -1.3604262933900001e-02 0.0000000000000000e+00  4.2309800769192618e-05 -1.3557853171167965e-02 0.0000000000000000e+00  4.4510146444134575e-05 -1.3571828941043109e-02 0.0000000000000000e+00  4.1847071400673352e-05 -1.3574907129678590e-02 0.0000000000000000e+00  4.1906643380664271e-05 -1.3579395755604859e-02 0.0000000000000000e+00  4.0031535370948335e-05 -1.3577596029552235e-02 0.0000000000000000e+00  4.4881859434761862e-05 -1.3578134823085968e-02 0.0000000000000000e+00  4.9019618111904440e-05 -1.3525039552986522e-02 0.0000000000000000e+00  3.7145580522559200e-05 -1.3553269220853632e-02 0.0000000000000000e+00  3.4342757397917784e-05 -1.3562470987735083e-02 0.0000000000000000e+00  3.5716983858685760e-05 -1.3566677148752199e-02 0.0000000000000000e+00  3.6841222239521906e-05 -1.3569101213320601e-02 0.0000000000000000e+00  3.4082998456433658e-05 -1.3561461335480238e-02 0.0000000000000000e+00  2.8444970041559486e-05 -1.3510579992859050e-02 0.0000000000000000e+00  4.4664649332366926e-05 -1.3543007481755851e-02 0.0000000000000000e+00  4.1361886835655299e-05 -1.3537412397634684e-02 0.0000000000000000e+00  4.5101387128092035e-05 -1.3555140489793071e-02 0.0000000000000000e+00  4.4159098863400873e-05 -1.3548882109470851e-02 0.0000000000000000e+00  4.0242767829688440e-05 -1.3551282829371984e-02 0.0000000000000000e+00  3.2640761470703237e-05 -1.3501433456473066e-02 0.0000000000000000e+00  5.3905835557907775e-05 -1.3526270270771988e-02 0.0000000000000000e+00  4.2372556935942744e-05 -1.3526763513916618e-02 0.0000000000000000e+00  4.9460422168110194e-05 -1.3543035951005339e-02 0.0000000000000000e+00  4.1262404944998248e-05 -1.3532729015565167e-02 0.0000000000000000e+00  4.8430062805543605e-05 -1.3540951274994944e-02 0.0000000000000000e+00  4.9806906585088519e-05 -1.3487355272349982e-02 0.0000000000000000e+00  4.8865523806787096e-05 -1.3493943164830845e-02 0.0000000000000000e+00  4.2009768005938959e-05 -1.3505828600996639e-02 0.0000000000000000e+00  4.7095723995784388e-05 -1.3508513223333445e-02 0.0000000000000000e+00  4.1277325967441581e-05 -1.3502737598684061e-02 0.0000000000000000e+00  4.2566421278995967e-05 -1.3506818515289834e-02 0.0000000000000000e+00  4.2285602552196959e-05 -1.3460452748483266e-02 0.0000000000000000e+00  2.9622976909353303e-05 -1.2681291159209523e-02 0.0000000000000000e+00  4.3753695064669862e-05 -1.3405209249683454e-02 0.0000000000000000e+00  5.3410116364277255e-05 -1.2831911722765120e-02 0.0000000000000000e+00  3.3257778996005617e-05 -9.1181150075334283e-03 0.0000000000000000e+00  0.0000000000000000e+00 0.0000000000000000e+00 0.0000000000000000e+00  3.1699459251061499e-05 -1.2656800870876192e-02 0.0000000000000000e+00  3.8154152316002395e-05 -1.3372029777185891e-02 0.0000000000000000e+00  4.2566565109048835e-05 -1.2803005743078534e-02 0.0000000000000000e+00  2.8014753293188166e-05 -9.0783435757144700e-03 0.0000000000000000e+00  0.0000000000000000e+00 0.0000000000000000e+00 0.0000000000000000e+00  3.2479998012164174e-05 -1.2705495584267552e-02 0.0000000000000000e+00  2.7115378211298018e-05 -1.3410682496189666e-02 0.0000000000000000e+00  1.6592050234211854e-05 -1.2919937855708739e-02 0.0000000000000000e+00  7.3621610354469122e-06 -9.0360569741119601e-03 0.0000000000000000e+00  0.0000000000000000e+00 0.0000000000000000e+00 0.0000000000000000e+00  4.3510384644110869e-05 -1.2632792418814607e-02 0.0000000000000000e+00  5.5692259802014884e-05 -1.3349329721770987e-02 0.0000000000000000e+00  2.0283386186918726e-05 -1.2806999231064632e-02 0.0000000000000000e+00  1.6323999784643521e-05 -9.0882475750476231e-03 0.0000000000000000e+00  0.0000000000000000e+00 0.0000000000000000e+00 0.0000000000000000e+00  3.2546860074191367e-05 -1.2710252864912284e-02 0.0000000000000000e+00  2.7837677610646919e-05 -1.3423001905910821e-02 0.0000000000000000e+00  1.8970906531878210e-05 -1.2856822519576299e-02 0.0000000000000000e+00  1.5239891558752582e-05 -9.1317621442804277e-03 0.0000000000000000e+00  0.0000000000000000e+00 0.0000000000000000e+00 0.0000000000000000e+00  3.6124124014950959e-05 -1.2719834200468632e-02 0.0000000000000000e+00  4.5797835981589050e-05 -1.3437731457462692e-02 0.0000000000000000e+00  5.4047703925490650e-05 -1.2863721757293943e-02 0.0000000000000000e+00  3.5418897374237356e-05 -9.1521160993891845e-03 0.0000000000000000e+00  0.0000000000000000e+00 0.0000000000000000e+00 0.0000000000000000e+00  3.6213057804032232e-05 -1.2763241204763848e-02 0.0000000000000000e+00  4.2714380949284824e-05 -1.3461383797209452e-02 0.0000000000000000e+00  4.8800613639556080e-05 -1.2974148691720535e-02 0.0000000000000000e+00  3.7936788819546477e-05 -9.0913391367112677e-03 0.0000000000000000e+00  0.0000000000000000e+00 0.0000000000000000e+00 0.0000000000000000e+00  2.6283119541850013e-05 -1.2751913692104695e-02 0.0000000000000000e+00  2.1845861953820665e-05 -1.3448076652406040e-02 0.0000000000000000e+00  1.3038490366969730e-05 -1.2954601945229032e-02 0.0000000000000000e+00  4.8736263128166287e-06 -9.0744803611160028e-03 0.0000000000000000e+00  0.0000000000000000e+00 0.0000000000000000e+00 0.0000000000000000e+00  3.3571366182307283e-05 -1.2560270534344692e-02 0.0000000000000000e+00  2.8633441163141898e-05 -1.3276791289632136e-02 0.0000000000000000e+00  2.0364137067244179e-05 -1.2717103803855635e-02 0.0000000000000000e+00  1.5778723788028047e-05 -8.9824608813508476e-03 0.0000000000000000e+00  0.0000000000000000e+00 0.0000000000000000e+00 0.0000000000000000e+00  3.3765661192815125e-05 -1.2555873544662883e-02 0.0000000000000000e+00  2.8876910374293833e-05 -1.3263855761904404e-02 0.0000000000000000e+00  1.8677102949835954e-05 -1.2779037209847485e-02 0.0000000000000000e+00  8.8658487334133118e-06 -8.8880227072070436e-03 0.0000000000000000e+00  0.0000000000000000e+00 0.0000000000000000e+00 0.0000000000000000e+00  4.0499530631908584e-05 -1.2587977925495082e-02 0.0000000000000000e+00  5.2106134452571769e-05 -1.3304395236777384e-02 0.0000000000000000e+00  1.1807274917127074e-05 -1.2760935946787530e-02 0.0000000000000000e+00  1.4121195142176814e-05 -9.0403765079427045e-03 0.0000000000000000e+00  0.0000000000000000e+00 0.0000000000000000e+00 0.0000000000000000e+00  4.3528222696866672e-05 -1.2717642434852860e-02 0.0000000000000000e+00  6.2134732179592141e-05 -1.3393248805839813e-02 0.0000000000000000e+00  4.1374422460700524e-05 -1.2785068975922988e-02 0.0000000000000000e+00  4.4929614590806771e-05 -1.3467039412089842e-02 0.0000000000000000e+00  2.9049534813776621e-05 -9.0837244402119394e-03 0.0000000000000000e+00  0.0000000000000000e+00 0.0000000000000000e+00 0.0000000000000000e+00  3.4691819103109223e-05 -1.2587144433277086e-02 0.0000000000000000e+00  4.6177896461023350e-05 -1.3264042510598397e-02 0.0000000000000000e+00  5.3709871665345118e-05 -1.2689841996241097e-02 0.0000000000000000e+00  4.8713530521955338e-05 -1.3336233679306279e-02 0.0000000000000000e+00  3.3115730745813053e-05 -8.9964340427174817e-03 0.0000000000000000e+00  0.0000000000000000e+00 0.0000000000000000e+00 0.0000000000000000e+00  4.0960898770525541e-05 -1.2656474227394325e-02 0.0000000000000000e+00  4.7271959810917446e-05 -1.3323319482997715e-02 0.0000000000000000e+00  6.5305851174573918e-06 -1.2776974678210313e-02 0.0000000000000000e+00  2.8602700485597395e-05 -1.3400401578560463e-02 0.0000000000000000e+00  1.3720748997600648e-05 -9.0946049486502166e-03 0.0000000000000000e+00  0.0000000000000000e+00 0.0000000000000000e+00 0.0000000000000000e+00  5.4074054312685897e-05 -1.2686976860265294e-02 0.0000000000000000e+00  7.3358420869367458e-05 -1.3340623307206227e-02 0.0000000000000000e+00  4.8712654384651647e-05 -1.2825032215270106e-02 0.0000000000000000e+00  5.1102803204599795e-05 -1.3423136396872001e-02 0.0000000000000000e+00  4.0391332691760690e-05 -8.9432914050883456e-03 0.0000000000000000e+00  0.0000000000000000e+00 0.0000000000000000e+00 0.0000000000000000e+00  4.0349030233107091e-05 -1.2836244526112676e-02 0.0000000000000000e+00  5.0009117275500944e-05 -1.3339127259917241e-02 0.0000000000000000e+00  5.7636100759347638e-05 -1.2367376687271047e-02 0.0000000000000000e+00  6.0476078338846635e-06 -1.2901297501438220e-02 0.0000000000000000e+00  1.5316903919731529e-05 -1.3402235416084542e-02 0.0000000000000000e+00  -3.1130401468130389e-05 -1.2434827518951867e-02 0.0000000000000000e+00  3.9979234977835527e-05 -1.3357316587963854e-02 0.0000000000000000e+00  -8.8025105162547211e-06 -8.6098594493473953e-03 0.0000000000000000e+00  1.9378719698123681e-05 -1.3090086080483551e-02 0.0000000000000000e+00  3.6269356684484189e-05 -1.3462973238202086e-02 0.0000000000000000e+00  9.9823847242608874e-06 -1.2556715908066738e-02 0.0000000000000000e+00  3.8239354427993157e-05 -1.3036304420968181e-02 0.0000000000000000e+00  3.9966864986465006e-05 -1.3450755146632557e-02 0.0000000000000000e+00  4.5127424537829292e-05 -1.2552025495852782e-02 0.0000000000000000e+00  4.3552993195018476e-05 -1.3476385750867488e-02 0.0000000000000000e+00  5.1137348310003983e-05 -1.3460305503169866e-02 0.0000000000000000e+00  4.5211885451185542e-05 -1.3476377623541454e-02 0.0000000000000000e+00  4.4608731937134305e-05 -1.3478433892712451e-02 0.0000000000000000e+00  4.1001310370051297e-05 -1.3464836705546939e-02 0.0000000000000000e+00  4.3649378824885789e-05 -1.3379800113397722e-02 0.0000000000000000e+00  3.9436207070108903e-05 -1.3364106806186760e-02 0.0000000000000000e+00  4.5817580264141768e-05 -1.3392072368127695e-02 0.0000000000000000e+00  4.6879377731603540e-05 -1.3392254874430746e-02 0.0000000000000000e+00  4.6947881167016337e-05 -1.3373012726185365e-02 0.0000000000000000e+00  3.5773141236244343e-05 -1.3457666849714950e-02 0.0000000000000000e+00  4.3234862537068902e-05 -1.3440776237553022e-02 0.0000000000000000e+00  3.4044807123859191e-05 -1.3457835403462050e-02 0.0000000000000000e+00  3.5201878704841715e-05 -1.3461773329224538e-02 0.0000000000000000e+00  3.0728049043661996e-05 -1.3450775302401359e-02 0.0000000000000000e+00  3.8191743602851732e-05 -1.3522713693871034e-02 0.0000000000000000e+00  4.4273916697498347e-05 -1.3509732324886463e-02 0.0000000000000000e+00  3.8778397120289358e-05 -1.3522208366385216e-02 0.0000000000000000e+00  3.8961254985853763e-05 -1.3523859599067368e-02 0.0000000000000000e+00  3.4006015449177927e-05 -1.3503788365382127e-02 0.0000000000000000e+00  3.9523135396061110e-05 -1.2982047965270103e-02 0.0000000000000000e+00  5.0076759449060550e-05 -1.3486065344140602e-02 0.0000000000000000e+00  5.8059136324396461e-05 -1.2515443272093594e-02 0.0000000000000000e+00  2.8509003175058175e-05 -1.3438550244406116e-02 0.0000000000000000e+00  1.8717378968219101e-05 -8.6752343076269035e-03 0.0000000000000000e+00  3.7526083123721325e-05 -1.3019084386881152e-02 0.0000000000000000e+00  4.8689829270648814e-05 -1.3520956193649814e-02 0.0000000000000000e+00  5.7711436585887224e-05 -1.2549349000488498e-02 0.0000000000000000e+00  3.4828315946138161e-05 -1.3135096245548677e-02 0.0000000000000000e+00  4.1056659049083747e-05 -1.3501950640009631e-02 0.0000000000000000e+00  2.4780007654902530e-05 -8.8114119292295838e-03 0.0000000000000000e+00  2.4720459978107904e-05 -1.3475344365562629e-02 0.0000000000000000e+00  1.7583859936457157e-05 -8.7065960786051177e-03 0.0000000000000000e+00  3.0069896736005953e-05 -1.3291894213157063e-02 0.0000000000000000e+00  1.9706588199285927e-05 -8.5463820248316315e-03 0.0000000000000000e+00  -3.8687343932222153e-06 -1.2954767071959932e-02 0.0000000000000000e+00  1.8724444055398344e-05 -1.3396150912923375e-02 0.0000000000000000e+00  -2.7318738627926165e-05 -1.2436013971622625e-02 0.0000000000000000e+00  3.2615506338662193e-05 -1.3518820002741147e-02 0.0000000000000000e+00  3.7381281203762729e-05 -1.3525472154661629e-02 0.0000000000000000e+00  3.3750267718125650e-05 -1.3522736713474712e-02 0.0000000000000000e+00  4.6244157982953095e-05 -1.3397811836270907e-02 0.0000000000000000e+00  4.7730304450300648e-05 -1.3400094927214026e-02 0.0000000000000000e+00  4.5475331183408877e-05 -1.3397501846674336e-02 0.0000000000000000e+00  2.8796926861099291e-05 -1.3461909494132708e-02 0.0000000000000000e+00  2.7574215002346859e-05 -1.3461742050423402e-02 0.0000000000000000e+00  3.1277619518874330e-05 -1.3463614383180606e-02 0.0000000000000000e+00  3.9194843986220387e-05 -1.3475083233782202e-02 0.0000000000000000e+00  4.2977973622894775e-05 -1.3477331403346554e-02 0.0000000000000000e+00  4.1429739475708049e-05 -1.3477415491442853e-02 0.0000000000000000e+00  4.3698258530629029e-06 -1.3026545257442805e-02 0.0000000000000000e+00  2.4427630817334087e-05 -1.3434847271731450e-02 0.0000000000000000e+00  -2.0330991640198009e-05 -1.2518497629195855e-02 0.0000000000000000e+00  3.7625563107003429e-05 -1.3395219312708243e-02 0.0000000000000000e+00  4.3145144498740814e-05 -1.3383314166296879e-02 0.0000000000000000e+00  3.7134515049364581e-05 -1.3445826438809606e-02 0.0000000000000000e+00  4.6724628879563925e-05 -1.3051918834300310e-02 0.0000000000000000e+00  3.9707199741753625e-05 -1.3329129175541856e-02 0.0000000000000000e+00  4.5418481870764812e-05 -1.3391865935813041e-02 0.0000000000000000e+00  3.4112411529991089e-05 -1.3375815770272002e-02 0.0000000000000000e+00  3.2696941651795533e-05 -1.3357279107771430e-02 0.0000000000000000e+00  3.2068167734356981e-05 -1.3424129797723474e-02 0.00