<?xml version="1.0"?>
<VTKFile type="UnstructuredGrid"  version="0.1"  >
<UnstructuredGrid>
<Piece  NumberOfPoints="2690" NumberOfCells="4864">
<Points>
<DataArray  type="Float64"  NumberOfComponents="3"  format="ascii">-5.000375093810768 22.00007298387133 0  -5.603433301174179 21.2625739588717 0  -5.000367265549118 21.50007896988158 0  -5.000358805797676 21.00007354578266 0  -5.603440515567889 21.76257525368414 0  -6.20650666140679 21.52506557193204 0  -9 21.99999999996945 0  -8.396929731273781 21.26251535146793 0  -9 21.49999999997139 0  -9 20.99999999997333 0  -8.396931015794401 21.76251525907 0  -7.793860811863658 21.52503032790296 0  -9 32.9999999999446 0  -8.396958045474269 32.26251509221155 0  -9 32.49999999994358 0  -9 31.99999999994255 0  -8.39695933166364 32.76251511181721 0  -7.793917441494604 32.52503005123931 0  -5.000563075961497 33.00007904715368 0  -5.520179651584423 32.29643624794016 0  -5.000554938336411 32.50008955294241 0  -5.000546341228342 32.00007650239947 0  -5.520187046155073 32.79643829180077 0  -6.03981166756626 32.59278609713704 0  -5.000922474655561 54.00007580446358 0  -5.60391836559829 54.73757220548175 0  -5.603911267230091 54.23757539876986 0  -6.206899339391327 54.47506396640909 0  -5.000930506695453 54.50008095785046 0  -5.000938475385773 55.00007627434773 0  -9 54.99999999998974 0  -8.4700568974521 54.29612685863504 0  -9 54.49999999998872 0  -9 53.99999999998769 0  -8.470057994975003 54.79612654739637 0  -7.940115110876159 54.59225319190912 0  -9 39.99999999995897 0  -8.396979866634839 40.73751487181859 0  -8.396978580917075 40.2375148834094 0  -7.79395838422408 40.47502955227615 0  -9 40.49999999996 0  -9 40.99999999996102 0  -5.000699756767156 41.00007000274007 0  -5.577023251607979 40.26789396696571 0  -5.000691694802815 40.50008131365971 0  -5.000683502407758 40.00007909569739 0  -5.577030501746728 40.76789274615886 0  -6.153362114016419 40.53570253113987 0  -9 55.99999999999179 0  -8.421846856639915 56.74333901653596 0  -8.421845768106399 56.24333882357868 0  -7.843692678498882 56.48667763583339 0  -9 56.49999999999282 0  -9 56.99999999999384 0  -5.000956389964007 56.00007243199327 0  -5.57912078368058 56.74339780066151 0  -5.579113698366514 56.24339749095795 0  -6.157270116239164 56.48671358799989 0  -5.000964792576498 56.50008342273357 0  -5.000972740099247 57.0000764656512 0  -7.437786758361271 43.00004159478287 0  -6.590063454742499 43.10823536222284 0  -7.199328096993333 43.33738574067844 0  -6.960870124685851 43.67472995962341 0  -6.828521463516907 42.77089076125924 0  -6.21925495215747 42.54173990772398 0  -6.563009837110964 49.00007874986908 0  -7.410711778423009 48.8918804534287 0  -6.801461803054526 48.66273403332679 0  -7.039914459850228 48.32538908210917 0  -7.172259160084607 49.22922500664727 0  -7.781507295238174 49.45837184410783 0  -6.562978528086647 46.00007388617465 0  -7.410691378812696 45.89187734229891 0  -6.801433570255543 45.66272832648725 0  -7.039889304564282 45.32538314974214 0  -7.172235695516018 46.22922247343122 0  -7.781491660211045 46.45837076779186 0  -6.562572839930892 7.000076777050805 0  -7.410426823650651 6.891879585926318 0  -6.801067602759995 6.662732020782943 0  -7.03956305644612 6.325387278122347 0  -7.171931424609736 7.229224324124491 0  -7.781288808732317 7.458371804437165 0  -7.437700047552527 30.00004107546696 0  -6.589929682356593 30.10823425304957 0  -7.199228150633045 30.33738407026302 0  -6.960756944349462 30.67472681505459 0  -6.828400931929277 29.77089101517836 0  -6.219100600171212 29.54174134738678 0  -6.562542139180621 4.000073038516744 0  -7.410408396020043 4.108218064935671 0  -6.801046158593191 4.337403648679285 0  -7.039549499472529 4.674733996582972 0  -7.171905099056143 3.770887555051035 0  -7.781269093406605 3.541702578031546 0  -6.562603986670458 10.0000774979951 0  -7.410448581556289 10.10822104545607 0  -6.801102007478046 10.33740710758527 0  -7.03959934193247 10.67473670883435 0  -7.171951204949428 9.770891514907618 0  -7.781299614069563 9.541705448324972 0  -6.562635187069191 13.00007815466148 0  -7.410467462155542 12.89188069665099 0  -6.801123825068447 12.66273342050067 0  -7.039613150086938 12.32538870840295 0  -7.171978181337854 13.22922553401169 0  -7.781319981108617 13.45837267412318 0  -6.562666446345319 16.00007939330594 0  -7.410487839829778 15.89188104691983 0  -6.801152015806806 15.66273473964274 0  -7.039638275551401 15.32538988617365 0  -7.172001620385487 16.2292256079289 0  -7.781335605078307 16.45837228381013 0  -6.562697661189916 19.00007083568957 0  -7.410509673664263 19.10821586732774 0  -6.801186526952796 19.33739915227179 0  -7.039674700010511 19.67472792884644 0  -7.172021457677581 18.77088686919028 0  -7.781346446232501 18.54170267952728 0  -6.562780858509427 27.00006804977131 0  -7.410563925480434 27.10821410732609 0  -6.801261579907256 27.33739790445921 0  -7.039741608016607 27.67472786124341 0  -7.172083849289681 26.77088371928158 0  -7.78138803986233 26.54170003150121 0  -8.269189110437525 19.09392164995918 0  -8.025268066112252 18.81781204445929 0  -8.390672518467724 18.2708515514965 0  -8.634593701544961 18.54696115608999 0  -9 17.99999999998495 0  -8.269214053734075 27.09392076526007 0  -8.025301334661963 26.81781040788183 0  -8.390693315316133 26.27084994598962 0  -8.634606173185384 26.54696036805462 0  -9 25.99999999995395 0  -8.269179160270765 15.90612276108096 0  -8.025257094903896 16.1822475657648 0  -8.390668507056477 16.72918596802524 0  -8.634590434008876 16.45306125416763 0  -9 16.99999999998883 0  -5.731290296896215 30.09399055755038 0  -5.97519514388984 29.81786584485456 0  -5.609798405176069 29.27092449162696 0  -5.365893312711867 29.54705270064122 0  -5.000494439977822 29.00007283367837 0  -8.269169792279648 12.90612273772789 0  -8.025244599055371 13.18224769005254 0  -8.390660695696177 13.72918637036506 0  -8.634585749690903 13.45306140525713 0  -9 13.99999999999401 0  -8.269161022579418 10.09392407407285 0  -8.025230605468108 9.817814765158928 0  -8.390649104277971 9.270852710913539 0  -8.634579659386638 9.546962020436936 0  -9 8.99999999999857 0  -8.269142604699882 4.093922663472328 0  -8.025206113658383 3.817812685480829 0  -8.39063397229857 3.270851177343376 0  -8.634570536067956 3.546961171719739 0  -9 2.999999999998668 0  -8.269151113067078 6.906122181727602 0  -8.025219674795375 7.182246978482607 0  -8.390645106956232 7.729185925002273 0  -8.634576404067468 7.453061136004984 0  -9 7.999999999999485 0  -8.269272745424349 45.90612114840606 0  -8.025381914829918 46.18224587145971 0  -8.390746536285004 46.72918551906388 0  -8.634637226918713 46.45306080331425 0  -9 46.99999999997333 0  -8.26928212080256 48.9061224450607 0  -8.025394420320499 49.18224718591976 0  -8.390754350448132 49.72918574485819 0  -8.634641913713152 49.45306111361651 0  -9 49.99999999997949 0  -5.73147175887464 43.09399149907132 0  -5.975363047873612 42.8178656502642 0  -5.609986568931816 42.270921979453 0  -5.366095045342 42.54705170608463 0  -5.00071639814405 42.00006990156152 0  -5.726461274522527 23.91641418091321 0  -5.975202697714296 24.18414195374643 0  -5.612184505837844 24.7259889674726 0  -6.22394352519774 24.45186995694118 0  -5.363443341257228 24.45826475833351 0  -5.000427276247916 25.00007271537173 0  -8.274034265583525 52.08369702106243 0  -8.025325119501664 51.81596884481143 0  -8.388306991013588 51.27412064460881 0  -7.776615408173895 51.54824088058059 0  -8.637016298044594 51.54184881621349 0  -9 50.99999999998153 0  -5.726659236356991 38.08376598541397 0  -5.975378664281218 37.81602184390324 0  -5.612365775027459 37.27419120656525 0  -6.224098689618746 37.54827800053614 0  -5.363646077980936 37.54193955037895 0  -5.000630928100453 37.000066589833 0  -5.72661501979472 34.91641343288089 0  -5.975344771839455 35.18414067933504 0  -5.612343660503818 35.72598680275834 0  -6.224073928458423 35.4518681495588 0  -5.363614127629785 35.45826362982171 0  -5.000615225243252 36.00006947895964 0  -7.884022910698334 50.5002096456511 0  -7.830319041495873 51.02422535755487 0  -8.442012047614964 50.75010462450572 0  -6.116813206648333 36.50007246397545 0  -6.170456049241253 37.02417476317096 0  -5.55872183100908 36.75008268223881 0  -6.170443468603619 35.97596986094354 0  -5.558714597254196 36.25008199700363 0  -5.977024268371436 25.26004023395972 0  -6.100483699720928 24.85595527325805 0  -5.488725809289148 25.13006999900433 0  -8.027605347814047 25.74584157982941 0  -7.904496484212821 26.14377080310948 0  -8.513802937878113 25.87292080215415 0  -6.942630484916714 34.37595656387879 0  -6.583351368713701 34.91391275281284 0  -6.840276776413187 35.2384539953955 0  -7.199555985161839 34.70049840733265 0  -7.456480769207468 35.02504011937535 0  -7.058107590800704 52.62415037789247 0  -7.417360678587491 52.08619602539975 0  -7.160454570718295 51.761655975595 0  -6.801201574021077 52.29961054770478 0  -6.544294846626552 51.97507094285874 0  -6.942667822550436 38.62414988981705 0  -6.583384089570465 38.08621436797921 0  -6.840300021832964 37.76165881247027 0  -7.199583657283123 38.29959496705084 0  -7.456500208352644 37.97503989407623 0  -6.942533856783573 23.37595699049676 0  -6.583237856279895 23.91391371332135 0  -6.840175326285213 24.23845528660518 0  -7.199471419822643 23.70049907321432 0  -7.456408268109477 24.02504094686864 0  -7.884011928245516 17.50003458065032 0  -7.832679072723876 18.02086874242167 0  -8.442006559748446 17.75001708215898 0  -7.832673881194464 16.979203473632 0  -8.442005368444676 17.25001740435027 0  -7.883969054003819 8.500035417169567 0  -7.832634219250066 9.020870438616237 0  -8.441985121460032 8.750017717677629 0  -7.931253853794958 2.41562638682929 0  -7.856261226359469 2.978664384526738 0  -8.465627494791191 2.707813302560851 0  -7.832629043638882 7.979203629683695 0  -8.441983934112217 8.250017683504078 0  -7.832765218794685 49.97929078934919 0  -8.442010860135822 50.25010493645964 0  -6.027122885392801 41.59317025289084 0  -6.123189095152344 42.067455380423
[...]
<PointData  Vectors="f_27"> 
<DataArray  type="Float64"  Name="f_27"  NumberOfComponents="3" format="ascii">0.0000000000000000e+00 0.0000000000000000e+00 0.0000000000000000e+00  1.2471192166565481e-07 -1.6224507647635128e-03 0.0000000000000000e+00  0.0000000000000000e+00 0.0000000000000000e+00 0.0000000000000000e+00  0.0000000000000000e+00 0.0000000000000000e+00 0.0000000000000000e+00  -3.2666655625605831e-06 -2.2797113931605486e-03 0.0000000000000000e+00  -9.5109778571591087e-07 -2.3477250404956708e-03 0.0000000000000000e+00  0.0000000000000000e+00 0.0000000000000000e+00 0.0000000000000000e+00  6.3201126094847713e-07 -1.6525168367260881e-03 0.0000000000000000e+00  0.0000000000000000e+00 0.0000000000000000e+00 0.0000000000000000e+00  0.0000000000000000e+00 0.0000000000000000e+00 0.0000000000000000e+00  4.6734770126853440e-06 -2.2761398732344075e-03 0.0000000000000000e+00  2.2472091861817046e-06 -2.3580734457285127e-03 0.0000000000000000e+00  0.0000000000000000e+00 0.0000000000000000e+00 0.0000000000000000e+00  3.8739841870099596e-07 -1.6213180250885546e-03 0.0000000000000000e+00  0.0000000000000000e+00 0.0000000000000000e+00 0.0000000000000000e+00  0.0000000000000000e+00 0.0000000000000000e+00 0.0000000000000000e+00  4.3490080648995971e-06 -2.2747160249487865e-03 0.0000000000000000e+00  1.8940728040841496e-06 -2.3568390840624127e-03 0.0000000000000000e+00  0.0000000000000000e+00 0.0000000000000000e+00 0.0000000000000000e+00  -3.2234934803369289e-07 -1.7022200889469526e-03 0.0000000000000000e+00  0.0000000000000000e+00 0.0000000000000000e+00 0.0000000000000000e+00  0.0000000000000000e+00 0.0000000000000000e+00 0.0000000000000000e+00  -2.3963337676223549e-06 -2.2832713823091990e-03 0.0000000000000000e+00  -8.3145981885371925e-07 -2.3622289405511700e-03 0.0000000000000000e+00  0.0000000000000000e+00 0.0000000000000000e+00 0.0000000000000000e+00  9.4580350603450412e-07 -1.6990198729710517e-03 0.0000000000000000e+00  5.5241236673509433e-06 -2.2811688333711304e-03 0.0000000000000000e+00  2.3304194419254841e-06 -2.3585413929756382e-03 0.0000000000000000e+00  0.0000000000000000e+00 0.0000000000000000e+00 0.0000000000000000e+00  0.0000000000000000e+00 0.0000000000000000e+00 0.0000000000000000e+00  0.0000000000000000e+00 0.0000000000000000e+00 0.0000000000000000e+00  -3.8044152803683441e-07 -1.6946724924280178e-03 0.0000000000000000e+00  0.0000000000000000e+00 0.0000000000000000e+00 0.0000000000000000e+00  0.0000000000000000e+00 0.0000000000000000e+00 0.0000000000000000e+00  4.7796772953070506e-07 -2.2996271396698450e-03 0.0000000000000000e+00  1.9525075939873814e-07 -2.3628084214769897e-03 0.0000000000000000e+00  0.0000000000000000e+00 0.0000000000000000e+00 0.0000000000000000e+00  -3.8387315597687507e-07 -1.6173522290756296e-03 0.0000000000000000e+00  -4.2412548349031173e-06 -2.2748260512246979e-03 0.0000000000000000e+00  -1.8832436782181551e-06 -2.3557590512474800e-03 0.0000000000000000e+00  0.0000000000000000e+00 0.0000000000000000e+00 0.0000000000000000e+00  0.0000000000000000e+00 0.0000000000000000e+00 0.0000000000000000e+00  0.0000000000000000e+00 0.0000000000000000e+00 0.0000000000000000e+00  1.9151761412857767e-06 -1.6482186286827824e-03 0.0000000000000000e+00  0.0000000000000000e+00 0.0000000000000000e+00 0.0000000000000000e+00  0.0000000000000000e+00 0.0000000000000000e+00 0.0000000000000000e+00  -9.4087091821885640e-07 -2.3005399778225984e-03 0.0000000000000000e+00  3.3518676748547963e-07 -2.3612858092581469e-03 0.0000000000000000e+00  0.0000000000000000e+00 0.0000000000000000e+00 0.0000000000000000e+00  1.3390882689972394e-06 -1.7622774242814978e-03 0.0000000000000000e+00  -2.1909663085664101e-06 -2.2866438431351035e-03 0.0000000000000000e+00  1.8931452265659311e-07 -2.3615938123967136e-03 0.0000000000000000e+00  0.0000000000000000e+00 0.0000000000000000e+00 0.0000000000000000e+00  0.0000000000000000e+00 0.0000000000000000e+00 0.0000000000000000e+00  0.0000000000000000e+00 0.0000000000000000e+00 0.0000000000000000e+00  -1.4832591449158286e-06 -1.7621474679761636e-03 0.0000000000000000e+00  2.1526385412167997e-06 -2.2866767953108932e-03 0.0000000000000000e+00  -3.5427502473517057e-07 -2.3609469477920229e-03 0.0000000000000000e+00  0.0000000000000000e+00 0.0000000000000000e+00 0.0000000000000000e+00  0.0000000000000000e+00 0.0000000000000000e+00 0.0000000000000000e+00  -3.5235445118544912e-08 -2.4250496989627565e-03 0.0000000000000000e+00  -4.8577940549585193e-07 -2.4264714720361102e-03 0.0000000000000000e+00  -4.4808477727911932e-07 -2.4269725724718298e-03 0.0000000000000000e+00  -5.2096016689630379e-07 -2.4270686546752898e-03 0.0000000000000000e+00  -3.9097011302848789e-07 -2.4267096406451593e-03 0.0000000000000000e+00  -1.7831010434198662e-06 -2.4172926561769211e-03 0.0000000000000000e+00  6.4963518540307716e-08 -2.4241915285953069e-03 0.0000000000000000e+00  -1.1370148788356099e-08 -2.4226152112549427e-03 0.0000000000000000e+00  8.0015684688943114e-08 -2.4257929996645525e-03 0.0000000000000000e+00  9.9043204036631589e-08 -2.4242582408720440e-03 0.0000000000000000e+00  -2.1080240919981286e-07 -2.4254665972266863e-03 0.0000000000000000e+00  -1.0634781998192550e-06 -2.4163868865684788e-03 0.0000000000000000e+00  -1.3347703499516221e-06 -2.4241467504276387e-03 0.0000000000000000e+00  -9.2276155414981849e-07 -2.4256410387577115e-03 0.0000000000000000e+00  -1.2768090055057489e-06 -2.4263727022577875e-03 0.0000000000000000e+00  -9.8205576815963622e-07 -2.4267908069776968e-03 0.0000000000000000e+00  -1.1727847325503022e-06 -2.4253561912538214e-03 0.0000000000000000e+00  -1.6199008874667811e-06 -2.4163801225490240e-03 0.0000000000000000e+00  -7.6162351361965786e-07 -2.4240906846161856e-03 0.0000000000000000e+00  -8.8141285487846378e-07 -2.4254101213936571e-03 0.0000000000000000e+00  -7.8945612401852704e-07 -2.4260408395691520e-03 0.0000000000000000e+00  -5.7182573609125461e-07 -2.4260874034237640e-03 0.0000000000000000e+00  -1.0054313681576587e-06 -2.4256385049961464e-03 0.0000000000000000e+00  -1.7015868767832683e-06 -2.4172692552731933e-03 0.0000000000000000e+00  -7.7468436492753750e-07 -2.4239554176629183e-03 0.0000000000000000e+00  -2.0957474218508966e-07 -2.4236790616143345e-03 0.0000000000000000e+00  -9.1255131217938744e-07 -2.4269227055133099e-03 0.0000000000000000e+00  -6.7332825839731847e-07 -2.4252972864123395e-03 0.0000000000000000e+00  -4.0558083038651940e-07 -2.4258437086720906e-03 0.0000000000000000e+00  -8.8858465463449129e-07 -2.4162371085468095e-03 0.0000000000000000e+00  -3.7667221060706446e-07 -2.4240444910105428e-03 0.0000000000000000e+00  8.2479056957418041e-08 -2.4257760876581994e-03 0.0000000000000000e+00  -9.8779644757085335e-08 -2.4262256347651226e-03 0.0000000000000000e+00  -1.5982154167905984e-07 -2.4262348467257314e-03 0.0000000000000000e+00  -5.5733148781328609e-09 -2.4260124193235815e-03 0.0000000000000000e+00  8.8491791249255660e-07 -2.4182633750891684e-03 0.0000000000000000e+00  7.4150392125330388e-07 -2.4240258532521272e-03 0.0000000000000000e+00  8.7634296153548678e-07 -2.4251926428379930e-03 0.0000000000000000e+00  7.2037223822998342e-07 -2.4259194660797181e-03 0.0000000000000000e+00  4.6889392635720000e-07 -2.4259385663502986e-03 0.0000000000000000e+00  1.0797415202502335e-06 -2.4254599079079325e-03 0.0000000000000000e+00  2.1135958878350190e-06 -2.4156970241920321e-03 0.0000000000000000e+00  -4.9428799120116655e-07 -2.4237964069858072e-03 0.0000000000000000e+00  -4.6780864469471992e-07 -2.4250578258457568e-03 0.0000000000000000e+00  -4.3785276892248252e-07 -2.4257530088546450e-03 0.0000000000000000e+00  -1.8246553018336117e-07 -2.4258323204194450e-03 0.0000000000000000e+00  -7.0337188128132534e-07 -2.4251381269567015e-03 0.0000000000000000e+00  -1.3980078024938978e-06 -2.4161445361851035e-03 0.0000000000000000e+00  6.7718473345243873e-08 -2.4243775751711326e-03 0.0000000000000000e+00  2.2190756915126179e-08 -2.4227389544190345e-03 0.0000000000000000e+00  1.2586692003916746e-07 -2.4259643116003936e-03 0.0000000000000000e+00  1.8837955476929864e-07 -2.4244213153395274e-03 0.0000000000000000e+00  -2.2644982281570160e-07 -2.4255911028667546e-03 0.0000000000000000e+00  -1.0796133216795582e-06 -2.4164590592836085e-03 0.0000000000000000e+00  1.5442542881862191e-06 -2.4245104426451718e-03 0.0000000000000000e+00  8.5475732666455383e-07 -2.4235302075292222e-03 0.0000000000000000e+00  1.4193151792633930e-06 -2.4270383026749765e-03 0.0000000000000000e+00  1.0642811110945586e-06 -2.4250971352156757e-03 0.0000000000000000e+00  1.3331070762958782e-06 -2.4262263066028899e-03 0.0000000000000000e+00  2.1315799000263940e-06 -2.4154685578330138e-03 0.0000000000000000e+00  4.3847312459742799e-07 -2.4232526687758176e-03 0.0000000000000000e+00  6.8605597444416168e-07 -2.4257595816845712e-03 0.0000000000000000e+00  8.1116027824415150e-07 -2.4261332066569385e-03 0.0000000000000000e+00  8.5623272520467256e-07 -2.4253812859250301e-03 0.0000000000000000e+00  4.1949077802813004e-07 -2.4258483182458034e-03 0.0000000000000000e+00  1.1895980184895395e-06 -2.4172370372656160e-03 0.0000000000000000e+00  -1.6876538235722519e-07 -2.2670570779587148e-03 0.0000000000000000e+00  1.7506609137130544e-06 -2.3998831509421089e-03 0.0000000000000000e+00  3.4757260934500770e-06 -2.2967414459519214e-03 0.0000000000000000e+00  1.9441597071825153e-06 -1.6187613448936263e-03 0.0000000000000000e+00  0.0000000000000000e+00 0.0000000000000000e+00 0.0000000000000000e+00  2.9082579953742655e-07 -2.2702174639972019e-03 0.0000000000000000e+00  1.0238288647148839e-06 -2.4009624329690460e-03 0.0000000000000000e+00  2.1698260576751288e-06 -2.2988582280466154e-03 0.0000000000000000e+00  1.2464298555053782e-06 -1.6187995154022708e-03 0.0000000000000000e+00  0.0000000000000000e+00 0.0000000000000000e+00 0.0000000000000000e+00  -3.6857704024155679e-07 -2.2698612757575229e-03 0.0000000000000000e+00  -1.5534457946860892e-06 -2.3992483519278359e-03 0.0000000000000000e+00  -3.0916689792304376e-06 -2.3118422748127812e-03 0.0000000000000000e+00  -2.7739138908945638e-06 -1.6024119235272262e-03 0.0000000000000000e+00  0.0000000000000000e+00 0.0000000000000000e+00 0.0000000000000000e+00  8.2508079701848454e-07 -2.2682969006502882e-03 0.0000000000000000e+00  -4.9402515911879039e-07 -2.4003597643611338e-03 0.0000000000000000e+00  -1.9173577084137891e-06 -2.2976820154436074e-03 0.0000000000000000e+00  -9.6163656684428741e-07 -1.6182263949019600e-03 0.0000000000000000e+00  0.0000000000000000e+00 0.0000000000000000e+00 0.0000000000000000e+00  -4.5974170909262188e-08 -2.2687732320689686e-03 0.0000000000000000e+00  -1.1038467724596615e-06 -2.3996597977834658e-03 0.0000000000000000e+00  -2.4729728262018287e-06 -2.2991129293044184e-03 0.0000000000000000e+00  -1.3378628838076274e-06 -1.6181250017114524e-03 0.0000000000000000e+00  0.0000000000000000e+00 0.0000000000000000e+00 0.0000000000000000e+00  6.3845983610199812e-07 -2.2681679809253030e-03 0.0000000000000000e+00  1.9994200998456023e-06 -2.3996080524435318e-03 0.0000000000000000e+00  3.5110493246829052e-06 -2.2967393725075906e-03 0.0000000000000000e+00  2.1176992217225497e-06 -1.6188052027459173e-03 0.0000000000000000e+00  0.0000000000000000e+00 0.0000000000000000e+00 0.0000000000000000e+00  6.6435482681011287e-07 -2.2726425707540361e-03 0.0000000000000000e+00  1.4997610896656019e-06 -2.4005431228676329e-03 0.0000000000000000e+00  2.6331819964751956e-06 -2.3139114548931250e-03 0.0000000000000000e+00  2.6080811152643872e-06 -1.6038401419027387e-03 0.0000000000000000e+00  0.0000000000000000e+00 0.0000000000000000e+00 0.0000000000000000e+00  -1.1268550084107902e-06 -2.2719299921639432e-03 0.0000000000000000e+00  -2.1054071696367662e-06 -2.3996820699948122e-03 0.0000000000000000e+00  -3.4355671514323029e-06 -2.3122092992554771e-03 0.0000000000000000e+00  -3.0065477532069380e-06 -1.6028307778222304e-03 0.0000000000000000e+00  0.0000000000000000e+00 0.0000000000000000e+00 0.0000000000000000e+00  2.0313274157040528e-07 -2.2690447859774095e-03 0.0000000000000000e+00  -1.1461459198879143e-06 -2.3999051493880687e-03 0.0000000000000000e+00  -2.5119012811061484e-06 -2.2992360768077143e-03 0.0000000000000000e+00  -1.2927260366639924e-06 -1.6181382701206644e-03 0.0000000000000000e+00  0.0000000000000000e+00 0.0000000000000000e+00 0.0000000000000000e+00  -3.7718980634159080e-07 -2.2697954771425531e-03 0.0000000000000000e+00  -1.5524450722643884e-06 -2.3991852324749810e-03 0.0000000000000000e+00  -3.0634485075514050e-06 -2.3118200428418026e-03 0.0000000000000000e+00  -2.7721248238389311e-06 -1.6023284997764748e-03 0.0000000000000000e+00  0.0000000000000000e+00 0.0000000000000000e+00 0.0000000000000000e+00  -4.1471992560447383e-08 -2.2694249297909321e-03 0.0000000000000000e+00  -1.5626961998520092e-06 -2.4007285679501123e-03 0.0000000000000000e+00  -3.4822149368129524e-06 -2.2970974736251796e-03 0.0000000000000000e+00  -1.6780711251136863e-06 -1.6189214356245023e-03 0.0000000000000000e+00  0.0000000000000000e+00 0.0000000000000000e+00 0.0000000000000000e+00  -6.9433159679633420e-08 -2.2791871814079141e-03 0.0000000000000000e+00  9.8080831485773762e-07 -2.4018737361749440e-03 0.0000000000000000e+00  2.0651858692737098e-06 -2.2981194919458685e-03 0.0000000000000000e+00  8.6225776543285087e-07 -2.4160871398283172e-03 0.0000000000000000e+00  1.0243309846232509e-06 -1.6231833625309281e-03 0.0000000000000000e+00  0.0000000000000000e+00 0.0000000000000000e+00 0.0000000000000000e+00  5.2722634904064486e-07 -2.2772939947121890e-03 0.0000000000000000e+00  2.1634250718183993e-06 -2.4010533179202238e-03 0.0000000000000000e+00  3.6292454460828024e-06 -2.2965309180020235e-03 0.0000000000000000e+00  2.1601116886849836e-06 -2.4145328339425080e-03 0.0000000000000000e+00  1.9587878138375859e-06 -1.6233811001211131e-03 0.0000000000000000e+00  0.0000000000000000e+00 0.0000000000000000e+00 0.0000000000000000e+00  -7.4124393161848673e-07 -2.2779406154527005e-03 0.0000000000000000e+00  -2.1384807541195818e-06 -2.4014325575075538e-03 0.0000000000000000e+00  -3.4880660085960461e-06 -2.2971606268919666e-03 0.0000000000000000e+00  -2.0228439881496900e-06 -2.4153958919396925e-03 0.0000000000000000e+00  -1.9910634403970503e-06 -1.6238657049258063e-03 0.0000000000000000e+00  0.0000000000000000e+00 0.0000000000000000e+00 0.0000000000000000e+00  1.5774119639920617e-06 -2.2829923542395307e-03 0.0000000000000000e+00  2.5757386373187872e-06 -2.4016737277522239e-03 0.0000000000000000e+00  3.6235956628000019e-06 -2.3126945012714836e-03 0.0000000000000000e+00  1.8864624452228441e-06 -2.4170012629889776e-03 0.0000000000000000e+00  3.0406741791147988e-06 -1.6079515385924469e-03 0.0000000000000000e+00  0.0000000000000000e+00 0.0000000000000000e+00 0.0000000000000000e+00  9.2072741593252743e-07 -2.3223158769181689e-03 0.0000000000000000e+00  2.3563948378756464e-06 -2.4142831368355829e-03 0.0000000000000000e+00  4.4018546983402785e-06 -2.2368093614865163e-03 0.0000000000000000e+00  -5.2244058724476893e-07 -2.3229110786000201e-03 0.0000000000000000e+00  -2.0653122834158976e-06 -2.4147944120735620e-03 0.0000000000000000e+00  -4.2098280750632117e-06 -2.2375491674444473e-03 0.0000000000000000e+00  1.9720863720302779e-06 -2.4057949519794377e-03 0.0000000000000000e+00  8.0780817318799094e-07 -1.5448662648831026e-03 0.0000000000000000e+00  1.2661457211464984e-06 -2.3484622538466433e-03 0.0000000000000000e+00  1.1249651439842577e-06 -2.4161024290582740e-03 0.0000000000000000e+00  2.7402172421956461e-06 -2.2484896288443713e-03 0.0000000000000000e+00  1.4919763550165874e-06 -2.3391298808426901e-03 0.0000000000000000e+00  1.2684678371793286e-06 -2.4149781550948531e-03 0.0000000000000000e+00  2.8479771635880864e-06 -2.2500839890924433e-03 0.0000000000000000e+00  9.2072092427499265e-07 -2.4262942766568258e-03 0.0000000000000000e+00  9.0925988429657014e-07 -2.4234756847796987e-03 0.0000000000000000e+00  1.1099821229182317e-06 -2.4263712425784336e-03 0.0000000000000000e+00  9.9968028205043338e-07 -2.4268326875287716e-03 0.0000000000000000e+00  1.0404700385404822e-06 -2.4245611867182121e-03 0.0000000000000000e+00  7.7112736447746090e-07 -2.4243273928795960e-03 0.0000000000000000e+00  4.7957833705613564e-07 -2.4204589772335947e-03 0.0000000000000000e+00  1.1386737718762105e-06 -2.4259400801817125e-03 0.0000000000000000e+00  9.5181943774635284e-07 -2.4266497528371007e-03 0.0000000000000000e+00  1.1762922542533062e-06 -2.4232262355941129e-03 0.0000000000000000e+00  -5.4213698902954122e-07 -2.4262621012073582e-03 0.0000000000000000e+00  -5.7130386717962963e-07 -2.4232479029591392e-03 0.0000000000000000e+00  -8.8809228840762687e-07 -2.4262619202120974e-03 0.0000000000000000e+00  -7.2107199283196308e-07 -2.4268651065632607e-03 0.0000000000000000e+00  -8.2115796274682286e-07 -2.4246072695269264e-03 0.0000000000000000e+00  1.7671394900046931e-07 -2.4259823335751243e-03 0.0000000000000000e+00  -1.1850342497251683e-07 -2.4234999992516376e-03 0.0000000000000000e+00  1.7976734478306559e-08 -2.4258816294686820e-03 0.0000000000000000e+00  1.5826322150515068e-07 -2.4264325983170475e-03 0.0000000000000000e+00  -1.0780455834685205e-07 -2.4229517486469157e-03 0.0000000000000000e+00  8.2752520724815448e-07 -2.3221147568943269e-03 0.0000000000000000e+00  2.2732464263827269e-06 -2.4143547615321287e-03 0.0000000000000000e+00  4.2922708274633615e-06 -2.2366338830499041e-03 0.0000000000000000e+00  -1.4191467644844816e-06 -2.4050593435516214e-03 0.0000000000000000e+00  -6.4333621483585340e-07 -1.5426084359560896e-03 0.0000000000000000e+00  6.0239427045032635e-07 -2.3224079023480802e-03 0.0000000000000000e+00  2.1310423541538480e-06 -2.4142521910709975e-03 0.0000000000000000e+00  4.2005658506304674e-06 -2.2366684347919267e-03 0.0000000000000000e+00  3.1306124980288643e-08 -2.3407293178078960e-03 0.0000000000000000e+00  1.0249301505718597e-06 -2.4075287613479772e-03 0.0000000000000000e+00  4.3460107793865738e-07 -1.5583221508261697e-03 0.0000000000000000e+00  -1.8144803732590790e-06 -2.4052476719599795e-03 0.0000000000000000e+00  -7.5797863999673882e-07 -1.5427040677709546e-03 0.0000000000000000e+00  -1.3750873937099247e-06 -2.4050229775589805e-03 0.0000000000000000e+00  -5.8794109313177197e-07 -1.5426219741856658e-03 0.0000000000000000e+00  -2.9269518318450301e-06 -2.3349006611498762e-03 0.0000000000000000e+00  -2.6360631602651529e-06 -2.4160940386499488e-03 0.0000000000000000e+00  -5.4251701128368577e-06 -2.2404206312008372e-03 0.0000000000000000e+00  -3.1512433749447575e-07 -2.4256588678192824e-03 0.0000000000000000e+00  2.5119124617403158e-07 -2.4265681233224521e-03 0.0000000000000000e+00  -4.2963247906445726e-07 -2.4264401775829334e-03 0.0000000000000000e+00  1.2790109761641916e-06 -2.4264014473986701e-03 0.0000000000000000e+00  1.5803134423964163e-06 -2.4263812220906779e-03 0.0000000000000000e+00  1.1419932685147861e-06 -2.4269109211595302e-03 0.0000000000000000e+00  -8.2193184625829108e-07 -2.4264929478271581e-03 0.0000000000000000e+00  -1.2526707437102218e-06 -2.4266789402710687e-03 0.0000000000000000e+00  -8.0409238634770572e-07 -2.4269049431890908e-03 0.0000000000000000e+00  9.9901510938503783e-07 -2.4265610265067085e-03 0.0000000000000000e+00  1.4183799660718068e-06 -2.4268042119444280e-03 0.0000000000000000e+00  1.0040413546523377e-06 -2.4268985390367504e-03 0.0000000000000000e+00  -1.5061766695343531e-06 -2.3394939527378944e-03 0.0000000000000000e+00  -1.1345518280762305e-06 -2.4145223319399882e-03 0.0000000000000000e+00  -2.8122613492352651e-06 -2.2472197114855098e-03 0.0000000000000000e+00  1.2199275324585023e-07 -2.4175428876958122e-03 0.0000000000000000e+00  -6.1027607449559520e-07 -2.4150405050083474e-03 0.0000000000000000e+00  -2.9866439276814575e-07 -2.4264760546888840e-03 0.0000000000000000e+00  1.2681888979824566e-06 -2.3602145052231418e-03 0.0000000000000000e+00  -1.6482661042824203e-07 -2.4110356176675288e-03 0.0000000000000000e+00  3.2708408210588100e-07 -2.4221313512994532e-03 0.0000000000000000e+00  6.9566082283348583e-08 -2.4169235303077817e-03 0.0000000000000000e+00  -6.0853431898