<?xml version="1.0"?>
<VTKFile type="UnstructuredGrid"  version="0.1"  >
<UnstructuredGrid>
<Piece  NumberOfPoints="2690" NumberOfCells="4864">
<Points>
<DataArray  type="Float64"  NumberOfComponents="3"  format="ascii">-5.094215109504756 22.02057284692605 0  -5.680674103871091 21.28325303648978 0  -5.092377964994182 21.5222541159869 0  -5.090150160606867 21.0206536087615 0  -5.682557972739897 21.78363845344549 0  -6.270837886933461 21.54338735778476 0  -9 21.99999999996945 0  -8.410633489537494 21.26679924102222 0  -9 21.49999999997139 0  -9 20.99999999997333 0  -8.41096734563393 21.76677545169868 0  -7.821622318198253 21.53349624972502 0  -9 32.9999999999446 0  -8.417916795531886 32.26673147055923 0  -9 32.49999999994358 0  -9 31.99999999994255 0  -8.418249966555813 32.7667381614061 0  -7.836185133482304 32.53342643355333 0  -5.142515322863149 33.02221908167959 0  -5.64122050142659 32.31834937535517 0  -5.140607776927197 32.525181778567 0  -5.138199789090812 32.02149834654345 0  -5.643177121560609 32.81892369533733 0  -6.143771510032819 32.61242993819253 0  -5.236636996118362 54.02114337526834 0  -5.806817145058097 54.75765123364226 0  -5.804952942984659 54.25854011593039 0  -6.372929760002405 54.49283856345237 0  -5.23887149623729 54.52274461221977 0  -5.240758798221241 55.02133329236554 0  -9 54.99999999998974 0  -8.501428784609141 54.29973651197151 0  -9 54.49999999998872 0  -9 53.99999999998769 0  -8.501726755791573 54.7996460782042 0  -8.003218371577393 54.59932181202345 0  -9 39.99999999995897 0  -8.423577890757826 40.74166070417456 0  -8.423244496252133 40.24166583704655 0  -7.846808116937185 40.48326866201477 0  -9 40.49999999996 0  -9 40.99999999996102 0  -5.177944026839624 41.01961081476272 0  -5.726235668337216 40.28895690693041 0  -5.176048330737725 40.52282565678777 0  -5.17383948543132 40.02210238538579 0  -5.72812024670196 40.78862474122602 0  -6.278298059040932 40.55402619867832 0  -9 55.99999999999179 0  -8.457591659625125 56.74717393178042 0  -8.457297897210118 56.24711639361142 0  -7.914903181836913 56.49423284696968 0  -9 56.49999999999282 0  -9 56.99999999999384 0  -5.245676971254836 56.02016483098951 0  -5.791163025498013 56.76357946732774 0  -5.789337325656261 56.26349069308136 0  -6.332589356329364 56.50425838500498 0  -5.248049683679056 56.52342604225984 0  -5.249932842344863 57.02140896729986 0  -7.510582113429509 43.01165723083363 0  -6.702679059640255 43.12638593981443 0  -7.283896643401498 43.35097434734693 0  -7.057380574553854 43.69030624116191 0  -6.929186657636445 42.78693980665603 0  -6.34750027794041 42.56223235096805 0  -6.692489889057039 49.02204626163743 0  -7.494955069542743 48.90607699392798 0  -6.917415186687839 48.68257548367276 0  -7.142544833954973 48.34303609654467 0  -7.269846319199549 49.24550560069001 0  -7.846880730110354 49.46912200298746 0  -6.684415103039771 46.02070119649028 0  -7.489690668027996 45.90520266365736 0  -6.91017056850812 45.6809811558992 0  -7.136113460614791 45.34136817570306 0  -7.263759079166364 46.24479857881319 0  -7.842806599497828 46.46881905894289 0  -6.580327751816844 7.021402706285334 0  -7.421813128384113 6.905761618642106 0  -6.816276276190008 6.681920097799955 0  -7.052413454956821 6.342441999805167 0  -7.185687538352258 7.245235378086216 0  -7.790752914049439 7.469053921858436 0  -7.488116444867064 30.01152658025486 0  -6.668014333940801 30.12609122705234 0  -7.258014765329079 30.35052454161383 0  -7.028089440716787 30.68944926110015 0  -6.897940408989823 29.787023676289 0  -6.307462151258981 29.56263843965178 0  -6.572764626017802 4.020369082483585 0  -7.417273374780502 4.121461784662714 0  -6.810992004556753 4.355892754278164 0  -7.04907243953541 4.691350250308571 0  -7.179203006861466 3.785963974300061 0  -7.785894999135273 3.55169090827059 0  -6.588110663029084 10.02158001643117 0  -7.427244954378425 10.12227177117823 0  -6.824868548464897 10.3568345228642 0  -7.061470055632313 10.69209053974651 0  -7.190627578194139 9.787038052195554 0  -7.79345066530947 9.552469118343904 0  -6.595915607230639 13.02177944284708 0  -7.431964350250468 12.90606476801442 0  -6.830325905536569 12.68230396140813 0  -7.064923647689985 12.34283474269988 0  -7.19736966786276 13.24556447088532 0  -7.798539166559583 13.46929026500331 0  -6.603778975179048 16.02211200230051 0  -7.437108126923355 15.90616386917932 0  -6.837416823984242 15.6826616467705 0  -7.071248545270517 15.3431569936175 0  -7.203294324844513 16.24558876497553 0  -7.802502032885498 16.46918983363476 0  -6.611932202980971 19.01980803222902 0  -7.442807729867762 19.12088231293976 0  -6.846450573955129 19.35470183360328 0  -7.080774023266252 19.68972131266485 0  -7.208465816164664 18.7857971827626 0  -7.805327565880381 18.5517298021426 0  -6.633351030643243 27.01906974103688 0  -7.456779791576841 27.12042092758869 0  -6.865730471595058 27.35438323536264 0  -7.097943103348567 27.68972712641832 0  -7.224566418668974 26.78495848545619 0  -7.816076284106384 26.55102120081839 0  -8.284024520893976 19.09973568459437 0  -8.044752358409141 18.82570006494007 0  -8.402477529689785 18.2759227384351 0  -8.641785962811541 18.54995872363421 0  -9 17.99999999998495 0  -8.290452578789697 27.09950330103396 0  -8.053337081712797 26.82526494551437 0  -8.407858934522675 26.2754913135297 0  -8.645008772813807 26.54974765460049 0  -9 25.99999999995395 0  -8.281429578826748 15.91265985842339 0  -8.041891284337726 16.19093658459733 0  -8.401432041756005 16.7345486294195 0  -8.640934065567102 16.45629626114086 0  -9 16.99999999998883 0  -5.837207556620663 30.11909477000362 0  -6.072256375559834 29.84084508026609 0  -5.716516785612476 29.29649307363533 0  -5.481465062403294 29.5757160018339 0  -5.124627268752191 29.02057855213094 0  -8.27906068979761 12.91265021827475 0  -8.038727132919735 13.19096593828958 0  -8.399444543874592 13.73465413600505 0  -8.639744856806049 13.45633511115036 0  -9 13.99999999999401 0  -8.276869255667632 10.10038703482537 0  -8.035230568615885 9.826428881193895 0  -8.396548502659707 9.276231268968706 0  -8.638223189626252 9.550189455474847 0  -9 8.99999999999857 0  -8.272300266506582 4.100003529997424 0  -8.029160921007731 3.82586427027603 0  -8.392806259546685 3.275815640000048 0  -8.635964662004094 3.549959147434276 0  -9 2.999999999998668 0  -8.274396483560993 6.912498542449711 0  -8.032502224835376 7.19077216444408 0  -8.395550635945998 7.73453298483158 0  -8.637410673256465 7.456261812124612 0  -9 7.999999999999485 0  -8.305604211779956 45.91224086108103 0  -8.074131899270466 46.19050558563767 0  -8.421582065717569 46.73444780856232 0  -8.653019060215412 46.45618529120563 0  -9 46.99999999997333 0  -8.308027073733504 48.91260826565601 0  -8.077376551096046 49.19087713132515 0  -8.423627301434893 49.73451238397891 0  -8.654240433822528 49.4562737043892 0  -9 49.99999999997949 0  -5.88426744716815 43.11934926901539 0  -6.115803626976586 42.84078819136677 0  -5.765347283384871 42.2958020734429 0  -5.53381843794586 42.57545262177276 0  -5.182204814252992 42.01972518470883 0  -5.810474003107203 23.9417577032708 0  -6.053704832651905 24.20726242861264 0  -5.702131206273788 24.75150658520976 0  -6.296777213773932 24.47283751915439 0  -5.459038917373494 24.48697685551049 0  -5.107453190829631 25.02040698249057 0  -8.315164432251773 52.0894433564728 0  -8.080244987325045 51.82381010453211 0  -8.422391466611971 51.27917602667235 0  -7.845171472980983 51.5582356305287 0  -8.657353853635811 51.54480810830526 0  -9 50.99999999998153 0  -5.861529760873148 38.108837644801 0  -6.09908981876623 37.83874176441465 0  -5.748872259732598 37.29909577287109 0  -6.336803073260551 37.56870602642501 0  -5.511307259745924 37.57037404250003 0  -5.159910837787944 37.01880505760687 0  -5.850043264274675 34.94156116820587 0  -6.090286363408143 35.20691728933516 0  -5.743127847673533 35.75090067898208 0  -6.330371502724308 35.47233903196214 0  -5.503009786916357 35.48666966933702 0  -5.155872535044257 36.01942536578898 0  -7.945218952350592 50.50975511669519 0  -7.895160791459651 51.03402181298923 0  -8.472768599038043 50.75482293165535 0  -6.230522953792127 36.52030759882174 0  -6.283685543958374 37.04437954191729 0  -5.695363174608336 36.77318781562379 0  -6.280415577963689 35.99618231466103 0  -5.693448717843534 36.27294178437968 0  -6.058938411481765 25.28230613887015 0  -6.177815445139544 24.87761348307127 0  -5.583408273943395 25.15512314551425 0  -8.054451528662234 25.75321287458342 0  -7.935210709838554 26.15211625346522 0  -8.527291673169529 25.87660993927044 0  -7.018943211703321 34.3909193728645 0  -6.674440342056369 34.93175182874366 0  -6.922454396362985 35.25427106490586 0  -7.266985654052163 34.71361212607321 0  -7.514841207565131 35.03626775480407 0  -7.169353200860924 52.63907770397911 0  -7.507033877366405 52.09876887928946 0  -7.263991658312087 51.77656957716055 0  -6.92633277322679 52.3169439430601 0  -6.683116220115911 51.99486854230058 0  -7.028636457564513 38.63898037465041 0  -6.682937400132982 38.10396304753548 0  -6.928490734085341 37.7774130428239 0  -7.274169953598327 38.31261568742728 0  -7.519888162367502 37.98620442503699 0  -6.994077942888501 23.39102909488559 0  -6.645214650130269 23.93200957336208 0  -6.896318586267417 24.25462352745011 0  -7.245213756646504 23.71378920569316 0  -7.496165056770714 24.03649148642295 0  -7.90467447666679 17.50964932300979 0  -7.854967889219712 18.0307206441695 0  -8.452492568775137 17.75476882537895 0  -7.85361640124989 16.98943082863449 0  -8.452182192276263 17.25485574668075 0  -7.893868600476242 8.509868224436806 0  -7.843632383780811 9.031170676919855 0  -8.447080643611633 8.754936234636792 0  -7.934276796857968 2.424171736627152 0  -7.860027798326718 2.987905432826295 0  -8.467275674326041 2.712114541467304 0  -7.842340036248067 7.989466465820409 0  -8.446784220175417 8.254927188447615 0  -7.896079935180861 49.98945080028529 0  -8.472448939060534 50.2549104163912 0  -6.16108337657427 41.61303406494599 0  -6.254346041757803 42.08772616000056 
[...]
<PointData  Vectors="f_27"> 
<DataArray  type="Float64"  Name="f_27"  NumberOfComponents="3" format="ascii">0.0000000000000000e+00 0.0000000000000000e+00 0.0000000000000000e+00  8.4499656142889013e-06 -9.7814288612352515e-03 0.0000000000000000e+00  0.0000000000000000e+00 0.0000000000000000e+00 0.0000000000000000e+00  0.0000000000000000e+00 0.0000000000000000e+00 0.0000000000000000e+00  -9.2028831738742247e-07 -1.3715755838416574e-02 0.0000000000000000e+00  1.7894846841325161e-05 -1.4103910077508571e-02 0.0000000000000000e+00  0.0000000000000000e+00 0.0000000000000000e+00 0.0000000000000000e+00  3.9536293007112492e-05 -9.9568036669475390e-03 0.0000000000000000e+00  0.0000000000000000e+00 0.0000000000000000e+00 0.0000000000000000e+00  0.0000000000000000e+00 0.0000000000000000e+00 0.0000000000000000e+00  7.9654906928647504e-05 -1.3670112721716273e-02 0.0000000000000000e+00  6.2407494152473092e-05 -1.4158363260047990e-02 0.0000000000000000e+00  0.0000000000000000e+00 0.0000000000000000e+00 0.0000000000000000e+00  4.0357168886195278e-05 -9.6763563042567436e-03 0.0000000000000000e+00  0.0000000000000000e+00 0.0000000000000000e+00 0.0000000000000000e+00  0.0000000000000000e+00 0.0000000000000000e+00 0.0000000000000000e+00  8.0785361744213787e-05 -1.3552086739008842e-02 0.0000000000000000e+00  6.6839392998928798e-05 -1.4041637809218098e-02 0.0000000000000000e+00  0.0000000000000000e+00 0.0000000000000000e+00 0.0000000000000000e+00  1.7151721697503146e-05 -1.0174777548865224e-02 0.0000000000000000e+00  0.0000000000000000e+00 0.0000000000000000e+00 0.0000000000000000e+00  0.0000000000000000e+00 0.0000000000000000e+00 0.0000000000000000e+00  2.5617950224574734e-05 -1.3623917594607921e-02 0.0000000000000000e+00  3.6700580514974969e-05 -1.4088908767257591e-02 0.0000000000000000e+00  0.0000000000000000e+00 0.0000000000000000e+00 0.0000000000000000e+00  2.8598407584438161e-05 -9.9409669444892306e-03 0.0000000000000000e+00  6.2718331327429717e-05 -1.3336240862551066e-02 0.0000000000000000e+00  5.4004435807426930e-05 -1.3805782401854295e-02 0.0000000000000000e+00  0.0000000000000000e+00 0.0000000000000000e+00 0.0000000000000000e+00  0.0000000000000000e+00 0.0000000000000000e+00 0.0000000000000000e+00  0.0000000000000000e+00 0.0000000000000000e+00 0.0000000000000000e+00  3.8831391939700965e-05 -9.9241524716348305e-03 0.0000000000000000e+00  0.0000000000000000e+00 0.0000000000000000e+00 0.0000000000000000e+00  0.0000000000000000e+00 0.0000000000000000e+00 0.0000000000000000e+00  5.5952346295443027e-05 -1.3479328561642646e-02 0.0000000000000000e+00  5.6132994070622940e-05 -1.3852494486015674e-02 0.0000000000000000e+00  0.0000000000000000e+00 0.0000000000000000e+00 0.0000000000000000e+00  3.4711175328504197e-05 -9.5827313383656087e-03 0.0000000000000000e+00  2.8455193256580594e-05 -1.3483899277448537e-02 0.0000000000000000e+00  4.2456212998353996e-05 -1.3962761390937349e-02 0.0000000000000000e+00  0.0000000000000000e+00 0.0000000000000000e+00 0.0000000000000000e+00  0.0000000000000000e+00 0.0000000000000000e+00 0.0000000000000000e+00  0.0000000000000000e+00 0.0000000000000000e+00 0.0000000000000000e+00  2.6808039825337372e-05 -9.7531470948066957e-03 0.0000000000000000e+00  0.0000000000000000e+00 0.0000000000000000e+00 0.0000000000000000e+00  0.0000000000000000e+00 0.0000000000000000e+00 0.0000000000000000e+00  2.2071695568246876e-05 -1.3646744740272497e-02 0.0000000000000000e+00  3.5231424421590634e-05 -1.3994279664850756e-02 0.0000000000000000e+00  0.0000000000000000e+00 0.0000000000000000e+00 0.0000000000000000e+00  5.2360314281055770e-05 -1.0295477031155114e-02 0.0000000000000000e+00  4.0551783335733374e-05 -1.3384101548354434e-02 0.0000000000000000e+00  5.8151739718604491e-05 -1.3822692165192907e-02 0.0000000000000000e+00  0.0000000000000000e+00 0.0000000000000000e+00 0.0000000000000000e+00  0.0000000000000000e+00 0.0000000000000000e+00 0.0000000000000000e+00  0.0000000000000000e+00 0.0000000000000000e+00 0.0000000000000000e+00  2.4561204684733210e-05 -1.0305792072714004e-02 0.0000000000000000e+00  5.2721526777322398e-05 -1.3384633387046622e-02 0.0000000000000000e+00  4.3586566844868352e-05 -1.3816495861646362e-02 0.0000000000000000e+00  0.0000000000000000e+00 0.0000000000000000e+00 0.0000000000000000e+00  0.0000000000000000e+00 0.0000000000000000e+00 0.0000000000000000e+00  7.8381458583445218e-05 -1.4346441508475576e-02 0.0000000000000000e+00  8.7970231742515883e-05 -1.4359140019387468e-02 0.0000000000000000e+00  7.8024612084110539e-05 -1.4358137733732842e-02 0.0000000000000000e+00  7.4224774830954199e-05 -1.4357158310479724e-02 0.0000000000000000e+00  8.2896439012722999e-05 -1.4357775370457033e-02 0.0000000000000000e+00  7.9579502193744385e-05 -1.4311391953913446e-02 0.0000000000000000e+00  1.0108484344455186e-04 -1.4270648143732547e-02 0.0000000000000000e+00  9.4159501715869931e-05 -1.4269484170410948e-02 0.0000000000000000e+00  1.0207846083604814e-04 -1.4289132875967290e-02 0.0000000000000000e+00  9.9380131901542491e-05 -1.4285445155885089e-02 0.0000000000000000e+00  9.3180094196789216e-05 -1.4280666919553684e-02 0.0000000000000000e+00  8.2023984498740882e-05 -1.4226497302380799e-02 0.0000000000000000e+00  8.8070630891390510e-05 -1.4311060425265460e-02 0.0000000000000000e+00  7.7160987778993582e-05 -1.4317719911407499e-02 0.0000000000000000e+00  8.0243898146104009e-05 -1.4325225103260767e-02 0.0000000000000000e+00  7.1200098715931868e-05 -1.4331331820523804e-02 0.0000000000000000e+00  8.3099248881251801e-05 -1.4314444737802585e-02 0.0000000000000000e+00  7.4415705087686043e-05 -1.4253982793854179e-02 0.0000000000000000e+00  8.4313165479596013e-05 -1.4684116029225570e-02 0.0000000000000000e+00  7.5815671177358474e-05 -1.4696116548619137e-02 0.0000000000000000e+00  8.0459650428984079e-05 -1.4701554289363587e-02 0.0000000000000000e+00  8.0183660966964688e-05 -1.4706195779197842e-02 0.0000000000000000e+00  7.7350339777568829e-05 -1.4695324188268627e-02 0.0000000000000000e+00  6.7730229396528510e-05 -1.4642479363671629e-02 0.0000000000000000e+00  7.2796965154143292e-05 -1.4468812132186959e-02 0.0000000000000000e+00  8.7667314240110169e-05 -1.4459944436823882e-02 0.0000000000000000e+00  7.4088569736703575e-05 -1.4482891050498372e-02 0.0000000000000000e+00  7.1509550433006150e-05 -1.4470623718882025e-02 0.0000000000000000e+00  8.0800567644218602e-05 -1.4474852939288642e-02 0.0000000000000000e+00  8.0763378207080101e-05 -1.4418843962109745e-02 0.0000000000000000e+00  9.2348951507211839e-05 -1.4726784658693320e-02 0.0000000000000000e+00  8.3536388176101459e-05 -1.4720252851635742e-02 0.0000000000000000e+00  8.7876886524796617e-05 -1.4730638985581176e-02 0.0000000000000000e+00  8.4289583077314993e-05 -1.4725618052666700e-02 0.0000000000000000e+00  8.5439666603221169e-05 -1.4724632433694708e-02 0.0000000000000000e+00  8.3815061986184086e-05 -1.4670169609827878e-02 0.0000000000000000e+00  8.9418085806990233e-05 -1.4667171153389447e-02 0.0000000000000000e+00  8.2973772950472582e-05 -1.4667728164162487e-02 0.0000000000000000e+00  8.3549804740807855e-05 -1.4672922847232666e-02 0.0000000000000000e+00  8.1443702677756014e-05 -1.4668996728124981e-02 0.0000000000000000e+00  8.8574431202894689e-05 -1.4672783869008665e-02 0.0000000000000000e+00  9.0927410083470767e-05 -1.4615888021630904e-02 0.0000000000000000e+00  8.2786296335739303e-05 -1.4628744370933748e-02 0.0000000000000000e+00  7.6458831147635314e-05 -1.4641884854851652e-02 0.0000000000000000e+00  7.9820476564382756e-05 -1.4646616127956341e-02 0.0000000000000000e+00  8.0311045073383852e-05 -1.4651422203332804e-02 0.0000000000000000e+00  7.6885071432971036e-05 -1.4639083477574526e-02 0.0000000000000000e+00  6.9117146114793830e-05 -1.4582608004515187e-02 0.0000000000000000e+00  9.5463395371336030e-05 -1.4602803332741214e-02 0.0000000000000000e+00  8.8346894692949187e-05 -1.4600901850986447e-02 0.0000000000000000e+00  9.6094457838348727e-05 -1.4620029321038711e-02 0.0000000000000000e+00  9.3115946187458589e-05 -1.4615394680357304e-02 0.0000000000000000e+00  8.7330530590746584e-05 -1.4613604269339307e-02 0.0000000000000000e+00  7.6406285714483661e-05 -1.4559664771592382e-02 0.0000000000000000e+00  1.0635031835970664e-04 -1.4564353317478096e-02 0.0000000000000000e+00  8.5696325840737476e-05 -1.4570982700571758e-02 0.0000000000000000e+00  9.7353476023490212e-05 -1.4585122502825025e-02 0.0000000000000000e+00  8.1756242236116116e-05 -1.4573366979715568e-02 0.0000000000000000e+00  9.5792075246965702e-05 -1.4586036553186318e-02 0.0000000000000000e+00  9.3461745158907118e-05 -1.4533744150330985e-02 0.0000000000000000e+00  1.0139889599422492e-04 -1.4498682883446194e-02 0.0000000000000000e+00  8.5698293062705009e-05 -1.4509187853620485e-02 0.0000000000000000e+00  9.5444696993160591e-05 -1.4512736992657009e-02 0.0000000000000000e+00  8.3339588106772262e-05 -1.4504294244351150e-02 0.0000000000000000e+00  8.8380764297455570e-05 -1.4511066099443116e-02 0.0000000000000000e+00  8.3139605933505470e-05 -1.4461926351780058e-02 0.0000000000000000e+00  6.4602507304725059e-05 -1.3665432547187217e-02 0.0000000000000000e+00  8.2786334245845211e-05 -1.4446566697003152e-02 0.0000000000000000e+00  9.2494926140559384e-05 -1.3831834925385662e-02 0.0000000000000000e+00  5.8950148634742348e-05 -9.8207048525825544e-03 0.0000000000000000e+00  0.0000000000000000e+00 0.0000000000000000e+00 0.0000000000000000e+00  6.6376258454628009e-05 -1.3590810965636092e-02 0.0000000000000000e+00  7.5431640091480582e-05 -1.4364867298991002e-02 0.0000000000000000e+00  7.7762071204409846e-05 -1.3755713575640148e-02 0.0000000000000000e+00  5.2245417695508463e-05 -9.7314362568462053e-03 0.0000000000000000e+00  0.0000000000000000e+00 0.0000000000000000e+00 0.0000000000000000e+00  7.1627205977187804e-05 -1.3702718688426310e-02 0.0000000000000000e+00  6.7559997432992843e-05 -1.4463073618605873e-02 0.0000000000000000e+00  5.5040025544098088e-05 -1.3932161425968403e-02 0.0000000000000000e+00  3.3292355898037290e-05 -9.7395024275771791e-03 0.0000000000000000e+00  0.0000000000000000e+00 0.0000000000000000e+00 0.0000000000000000e+00  8.6952539581033436e-05 -1.3551162844884695e-02 0.0000000000000000e+00  1.2218134128393128e-04 -1.4318228760497650e-02 0.0000000000000000e+00  5.6436614292712400e-05 -1.3769989868417669e-02 0.0000000000000000e+00  4.0465849626573069e-05 -9.7538134335767423e-03 0.0000000000000000e+00  0.0000000000000000e+00 0.0000000000000000e+00 0.0000000000000000e+00  6.9515452487180850e-05 -1.3720510839784244e-02 0.0000000000000000e+00  6.6105251941198215e-05 -1.4488811915533350e-02 0.0000000000000000e+00  5.5552115345985462e-05 -1.3875464723411697e-02 0.0000000000000000e+00  4.0775948523047671e-05 -9.8547366071003208e-03 0.0000000000000000e+00  0.0000000000000000e+00 0.0000000000000000e+00 0.0000000000000000e+00  7.2690851063449122e-05 -1.3744697553527667e-02 0.0000000000000000e+00  8.4698164059348742e-05 -1.4520768600347567e-02 0.0000000000000000e+00  9.2963307770497724e-05 -1.3902477974834529e-02 0.0000000000000000e+00  6.2014442449888162e-05 -9.8952496550729335e-03 0.0000000000000000e+00  0.0000000000000000e+00 0.0000000000000000e+00 0.0000000000000000e+00  7.2337998502465940e-05 -1.3810622766439474e-02 0.0000000000000000e+00  8.0864268963864110e-05 -1.4564315823558225e-02 0.0000000000000000e+00  8.6624958348753981e-05 -1.4036509017140491e-02 0.0000000000000000e+00  6.3945995113420592e-05 -9.8498428741081549e-03 0.0000000000000000e+00  0.0000000000000000e+00 0.0000000000000000e+00 0.0000000000000000e+00  6.2723920366138271e-05 -1.3791284309302085e-02 0.0000000000000000e+00  5.9380905446548471e-05 -1.4541759420951142e-02 0.0000000000000000e+00  4.9156524740168440e-05 -1.4005687148199324e-02 0.0000000000000000e+00  2.9153546002936274e-05 -9.8202004555836813e-03 0.0000000000000000e+00  0.0000000000000000e+00 0.0000000000000000e+00 0.0000000000000000e+00  7.1771768162955324e-05 -1.3380416265624263e-02 0.0000000000000000e+00  6.9911124405625370e-05 -1.4154795099082863e-02 0.0000000000000000e+00  6.0646924408544044e-05 -1.3556729683115771e-02 0.0000000000000000e+00  4.2715220997376642e-05 -9.5251860514404922e-03 0.0000000000000000e+00  0.0000000000000000e+00 0.0000000000000000e+00 0.0000000000000000e+00  7.6151239921106416e-05 -1.3362862506600844e-02 0.0000000000000000e+00  7.3230381344841571e-05 -1.4126860757484018e-02 0.0000000000000000e+00  6.1147052710967429e-05 -1.3608721279847562e-02 0.0000000000000000e+00  3.7558044764913092e-05 -9.4119781305678097e-03 0.0000000000000000e+00  0.0000000000000000e+00 0.0000000000000000e+00 0.0000000000000000e+00  8.5251098714701548e-05 -1.3438306308605669e-02 0.0000000000000000e+00  1.2097841954970649e-04 -1.4208852058561084e-02 0.0000000000000000e+00  4.8366352644695160e-05 -1.3661985535686828e-02 0.0000000000000000e+00  3.9329959071864646e-05 -9.6399109770162750e-03 0.0000000000000000e+00  0.0000000000000000e+00 0.0000000000000000e+00 0.0000000000000000e+00  9.3254412400400245e-05 -1.3672446088933169e-02 0.0000000000000000e+00  1.2548531464252026e-04 -1.4404953592569301e-02 0.0000000000000000e+00  7.4817675862773217e-05 -1.3725045411842525e-02 0.0000000000000000e+00  9.0138749328508026e-05 -1.4483027309727866e-02 0.0000000000000000e+00  5.4382715755835469e-05 -9.7210646070729975e-03 0.0000000000000000e+00  0.0000000000000000e+00 0.0000000000000000e+00 0.0000000000000000e+00  7.2557746292875198e-05 -1.3382093012858537e-02 0.0000000000000000e+00  8.6890705227824234e-05 -1.4113149607077246e-02 0.0000000000000000e+00  9.3770722913269521e-05 -1.3505839902403503e-02 0.0000000000000000e+00  9.2309466596982446e-05 -1.4191165727608999e-02 0.0000000000000000e+00  5.9504934404462881e-05 -9.5205044612441531e-03 0.0000000000000000e+00  0.0000000000000000e+00 0.0000000000000000e+00 0.0000000000000000e+00  9.0973403849622903e-05 -1.3541237340629940e-02 0.0000000000000000e+00  1.1479622401246936e-04 -1.4251404054593100e-02 0.0000000000000000e+00  3.7510278479264834e-05 -1.3701188360727210e-02 0.0000000000000000e+00  7.5176419789857389e-05 -1.4336881329794845e-02 0.0000000000000000e+00  4.0897480680386531e-05 -9.7306565572870384e-03 0.0000000000000000e+00  0.0000000000000000e+00 0.0000000000000000e+00 0.0000000000000000e+00  1.0506084041708270e-04 -1.3579223054259156e-02 0.0000000000000000e+00  1.3929328032477061e-04 -1.4286576366978034e-02 0.0000000000000000e+00  8.0741964189291130e-05 -1.3716022755655371e-02 0.0000000000000000e+00  9.7185349461845894e-05 -1.4376529533084777e-02 0.0000000000000000e+00  6.5138826226951695e-05 -9.5075560081005241e-03 0.0000000000000000e+00  0.0000000000000000e+00 0.0000000000000000e+00 0.0000000000000000e+00  8.2179088415645452e-05 -1.3658475011040269e-02 0.0000000000000000e+00  9.3740555469003876e-05 -1.4198147729821350e-02 0.0000000000000000e+00  9.6748765822701345e-05 -1.3150996476019073e-02 0.0000000000000000e+00  1.7675638756702082e-05 -1.3807718962374472e-02 0.0000000000000000e+00  4.8113609140561524e-05 -1.4343684526157223e-02 0.0000000000000000e+00  -3.7307579060109257e-05 -1.3307820323169564e-02 0.0000000000000000e+00  7.3149444785951330e-05 -1.4298206649257520e-02 0.0000000000000000e+00  -2.2916266563453282e-05 -9.1942033419309850e-03 0.0000000000000000e+00  3.3676137753881240e-05 -1.4069639873406641e-02 0.0000000000000000e+00  6.9810833909785704e-05 -1.4472480865328487e-02 0.0000000000000000e+00  4.4879280721160749e-06 -1.3506839079556755e-02 0.0000000000000000e+00  7.2769629045800564e-05 -1.4006046835220559e-02 0.0000000000000000e+00  7.7595968854772212e-05 -1.4453022333215378e-02 0.0000000000000000e+00  7.8391388449423915e-05 -1.3482062635204605e-02 0.0000000000000000e+00  8.8001392448336550e-05 -1.4437909639077932e-02 0.0000000000000000e+00  1.0381824507203344e-04 -1.4419818596997667e-02 0.0000000000000000e+00  9.0026428399475164e-05 -1.4436566517493509e-02 0.0000000000000000e+00  8.9677373517521575e-05 -1.4438807690161315e-02 0.0000000000000000e+00  8.1753589958466751e-05 -1.4422684271434604e-02 0.0000000000000000e+00  9.0005464255714089e-05 -1.4225961059793200e-02 0.0000000000000000e+00  8.3036129450638613e-05 -1.4215711378882969e-02 0.0000000000000000e+00  9.2501221542778061e-05 -1.4244489183325687e-02 0.0000000000000000e+00  9.5585484235945165e-05 -1.4240543737934163e-02 0.0000000000000000e+00  9.4747946069830908e-05 -1.4220247556249994e-02 0.0000000000000000e+00  8.0197733140606009e-05 -1.4394465136524788e-02 0.0000000000000000e+00  9.6034384774732525e-05 -1.4376957905155698e-02 0.0000000000000000e+00  7.9021829035038509e-05 -1.4396109803112244e-02 0.0000000000000000e+00  8.0285959279208485e-05 -1.4400445749575186e-02 0.0000000000000000e+00  7.1514472284808152e-05 -1.4390235985715689e-02 0.0000000000000000e+00  8.0814893567588523e-05 -1.4545317109117138e-02 0.0000000000000000e+00  9.5444774557390817e-05 -1.4531865685444977e-02 0.0000000000000000e+00  8.2732314100470643e-05 -1.4544503446923771e-02 0.0000000000000000e+00  8.2427631292583437e-05 -1.4545222041281017e-02 0.0000000000000000e+00  7.3439454412788118e-05 -1.4522441579122046e-02 0.0000000000000000e+00  7.9342859847681853e-05 -1.3993999825742082e-02 0.0000000000000000e+00  9.2842020236944136e-05 -1.4536435626117792e-02 0.0000000000000000e+00  9.6702277085886987e-05 -1.3490253248345371e-02 0.0000000000000000e+00  6.9669804703174985e-05 -1.4488513296671938e-02 0.0000000000000000e+00  4.4358495477322322e-05 -9.3489020643713790e-03 0.0000000000000000e+00  7.6058189307568329e-05 -1.4073547760564678e-02 0.0000000000000000e+00  9.0138274660354041e-05 -1.4614154637613154e-02 0.0000000000000000e+00  9.5994350678087307e-05 -1.3564793357753870e-02 0.0000000000000000e+00  7.3488135807262095e-05 -1.4213885510273166e-02 0.0000000000000000e+00  8.0454697590096906e-05 -1.4610416534832301e-02 0.0000000000000000e+00  4.9313904987198814e-05 -9.5441003289988315e-03 0.0000000000000000e+00  6.3696855190487092e-05 -1.4567710339228173e-02 0.0000000000000000e+00  4.2370298783322101e-05 -9.4168415350730020e-03 0.0000000000000000e+00  7.4586634053696788e-05 -1.4151873265610829e-02 0.0000000000000000e+00  4.7099026189786306e-05 -9.0609488164151864e-03 0.0000000000000000e+00  1.1959664446873741e-05 -1.3845500553695472e-02 0.0000000000000000e+00  5.8753957270735206e-05 -1.4317435770071611e-02 0.0000000000000000e+00  -2.1875290843122653e-05 -1.3286141988733262e-02 0.0000000000000000e+00  7.1532425782884216e-05 -1.4537856599659213e-02 0.0000000000000000e+00  7.7973883844987860e-05 -1.4546727357569062e-02 0.0000000000000000e+00  7.4773868867209948e-05 -1.4542413959243543e-02 0.0000000000000000e+00  9.2609720606913367e-05 -1.4255153579303174e-02 0.0000000000000000e+00  9.3840911268943642e-05 -1.4259351029910204e-02 0.0000000000000000e+00  9.1998623403572480e-05 -1.4251398008657217e-02 0.0000000000000000e+00  6.7805553370926737e-05 -1.4403804154286043e-02 0.0000000000000000e+00  6.8084441373042330e-05 -1.4402556271013280e-02 0.0000000000000000e+00  7.2729172103662784e-05 -1.4404838009180045e-02 0.0000000000000000e+00  7.8071091496194402e-05 -1.4431956821800587e-02 0.0000000000000000e+00  8.3153399462693251e-05 -1.4435063476983317e-02 0.0000000000000000e+00  8.2759188855822499e-05 -1.4435509479308252e-02 0.0000000000000000e+00  2.0409302327357404e-05 -1.3983939835184443e-02 0.0000000000000000e+00  6.1223941191221917e-05 -1.4420513906264859e-02 0.0000000000000000e+00  -2.3665710103948558e-05 -1.3431383345462171e-02 0.0000000000000000e+00  7.9670802639427837e-05 -1.4306074980701926e-02 0.0000000000000000e+00  9.5627456100112862e-05 -1.4295627226505866e-02 0.0000000000000000e+00  8.1589966586774238e-05 -1.4362632684655320e-02 0.0000000000000000e+00  9.3540086279391931e-05 -1.3906457179585417e-02 0.0000000000000000e+00  8.7656160582638701e-05 -1.4200260338036667e-02 0.0000000000000000e+00  9.6599684667082918e-05 -1.4270510349847422e-02 0.0000000000000000e+00  7.3942208085214117e-05 -1.4269653780392945e-02 0.0000000000000000e+00  7.5140319413029231e-05 -1.4244818266059047e-02 0.0000000000000000e+00  7.3856925243549019e-05 -1.4320488618194540e-02 0.000