<?xml version="1.0"?>
<VTKFile type="UnstructuredGrid"  version="0.1"  >
<UnstructuredGrid>
<Piece  NumberOfPoints="2690" NumberOfCells="4864">
<Points>
<DataArray  type="Float64"  NumberOfComponents="3"  format="ascii">-5.104236498264505 22.02275291010763 0  -5.688932571635474 21.28544836689767 0  -5.102213467238913 21.52461204597464 0  -5.099735682211209 21.02283509753663 0  -5.691025868885944 21.78587784916041 0  -6.277719942865001 21.54533455523465 0  -9 21.99999999996945 0  -8.412097800450914 21.26725490179105 0  -9 21.49999999997139 0  -9 20.99999999997333 0  -8.412468538235485 21.76722867558134 0  -7.824590734444711 21.53439666959682 0  -9 32.9999999999446 0  -8.420176328522947 32.26717968908083 0  -9 32.49999999994358 0  -9 31.99999999994255 0  -8.420546162690837 32.7671872398502 0  -7.840743088259366 32.53431898338301 0  -5.157801948921189 33.02456613454046 0  -5.654265680457934 32.3206753236194 0  -5.155705174608226 32.52784612007527 0  -5.153012240504796 32.02377092932395 0  -5.656442876153712 32.82131211453108 0  -6.154982446553635 32.61451639118052 0  -5.262391332538234 54.02336792169296 0  -5.82901228802459 54.75976357298025 0  -5.826939053325844 54.26074776240051 0  -6.391087825671505 54.49471074493966 0  -5.264894821211717 54.52514664874656 0  -5.266972945491372 55.02355842108582 0  -9 54.99999999998974 0  -8.504857763419981 54.3001177497414 0  -9 54.49999999998872 0  -9 53.99999999998769 0  -8.505190171954537 54.80001702456314 0  -8.010118453797665 54.60006723942224 0  -9 39.99999999995897 0  -8.4264612170861 40.7421001669488 0  -8.426091080393684 40.24210604112578 0  -7.852536689655989 40.48414190524917 0  -9 40.49999999996 0  -9 40.99999999996102 0  -5.197130833022911 41.02166574304051 0  -5.742403273268359 40.29118252308938 0  -5.195045254064758 40.52523018643173 0  -5.192579918140235 40.02442914660872 0  -5.744496454261647 40.79081558368569 0  -6.29184005865477 40.55596433679383 0  -9 55.99999999999179 0  -8.461507680648559 56.74757837982369 0  -8.461180271780588 56.24751414119058 0  -7.922703103002962 56.49502876780623 0  -9 56.49999999999282 0  -9 56.99999999999384 0  -5.272458002448553 56.02227637821767 0  -5.81439028440619 56.76570259889704 0  -5.812364579551307 56.26560344430737 0  -6.351793498963071 56.50610433303801 0  -5.275116481038019 56.52590015695494 0  -5.27719083414568 57.02364781226291 0  -7.518481258249301 43.01289469164084 0  -6.714903242825984 43.12832141429196 0  -7.293073440302392 43.35242263278437 0  -7.067852478666957 43.69196644534249 0  -6.940112587416612 42.78865023345534 0  -6.361423994701323 42.56441804013924 0  -6.706544480560831 49.02439730621549 0  -7.50409808749597 48.90759729212347 0  -6.929995091873062 48.68470013275296 0  -7.153675862637348 48.34492630687914 0  -7.280441848406986 49.24724839267184 0  -7.853980158194287 49.47027290023464 0  -6.69758706608456 46.02290779159029 0  -7.498257886725921 45.90662726156704 0  -6.921963191284294 45.68293227887885 0  -7.146548424800162 45.34307533244841 0  -7.273684839057957 46.24646479565448 0  -7.849455538049224 46.469936945115 0  -6.582167313044222 7.023674729101963 0  -7.422990484615948 6.907240188784493 0  -6.817846717079695 6.683964183157203 0  -7.053736662750349 6.344258488489672 0  -7.187113117129759 7.246940737485675 0  -7.79173404855481 7.470191586344609 0  -7.493543433936916 30.01275075790333 0  -6.676423318207348 30.12799518675584 0  -7.264345067947605 30.35192465605887 0  -7.035342092313511 30.69101696469062 0  -6.90542582656234 29.78874402013422 0  -6.31697446466798 29.56486843509902 0  -6.573818090107562 4.022529117881411 0  -7.417978854063054 4.12287151694199 0  -6.812013054518768 4.357860297574728 0  -7.05004827269812 4.693118627985653 0  -7.179954630839265 3.78756902607295 0  -7.78637100142598 3.552754389097476 0  -6.590773279913246 10.0238686412116 0  -7.428996037878065 10.12376763095449 0  -6.827346916212659 10.3589023665368 0  -7.063749483578384 10.69393797570483 0  -7.192575229769409 9.788757082277705 0  -7.794716791263161 9.553615173659255 0  -6.599403970914256 13.02409207189707 0  -7.434214292238805 12.90757593471439 0  -6.833381558400041 12.68438943143869 0  -7.067568339932069 12.34469356055114 0  -7.200029913506604 13.24730518621631 0  -7.800342913493085 13.47045332473883 0  -6.608104506381118 16.0244594968985 0  -7.439907786472103 15.90768592090462 0  -6.841227323153896 15.68478488958577 0  -7.074567156736345 15.34505005207368 0  -7.206588713840215 16.24733250116001 0  -7.804731548407218 16.47034283939859 0  -6.617162060966969 19.02191315590659 0  -7.446239236670847 19.12223271070228 0  -6.851265481136839 19.35654627626588 0  -7.085150717325051 19.69131858419817 0  -7.212332618769588 18.78738727039006 0  -7.807869743352832 18.55279911743313 0  -6.640921607263731 27.02109732745933 0  -7.461738835424355 27.1217231462929 0  -6.872647248284625 27.35619507935938 0  -7.10418935250307 27.6913266238937 0  -7.230197359900596 26.78646009909484 0  -7.819798019017683 26.5520154744501 0  -8.285600290006554 19.10035551908135 0  -8.046819933814897 18.8265411640149 0  -8.403727689060489 18.27646357961717 0  -8.642548340144435 18.55027840994471 0  -9 17.99999999998495 0  -8.29273161835925 27.1000988014192 0  -8.056345226670093 26.826060143752 0  -8.409700489090124 26.27598633128227 0  -8.646124805345609 26.55004495651496 0  -9 25.99999999995395 0  -8.282717966339032 15.91335657924428 0  -8.043642043195156 16.19186269301147 0  -8.402566515388939 16.73512033344483 0  -8.641602139703458 16.45664112030269 0  -9 16.99999999998883 0  -5.848621909721234 30.12177265800045 0  -6.082711319789509 29.843297665597 0  -5.728006974567672 29.29922818646158 0  -5.493922438007572 29.57878038331502 0  -5.137938666640267 29.0227713260351 0  -8.280095421167376 12.91334558492365 0  -8.040138567985114 13.19189470196333 0  -8.400364749242209 13.73523662109827 0  -8.640285040810738 13.4566838563096 0  -9 13.99999999999401 0  -8.277672421367585 10.1010751547299 0  -8.036272541918519 9.827346039556367 0  -8.397162723231487 9.27680397458523 0  -8.638602599394092 9.55053309907602 0  -9 8.99999999999857 0  -8.272624492553907 4.100650840156446 0  -8.029567386171111 3.826721435666286 0  -8.393029608580811 3.27634424526593 0  -8.636107897729842 3.550278325112094 0  -9 2.999999999998668 0  -8.274938617117806 6.913177606526246 0  -8.033256077720527 7.191680102368602 0  -8.396059458933372 7.735102426468841 0  -8.637704280136703 7.456602671757958 0  -9 7.999999999999485 0  -8.309543899934555 45.91289499728551 0  -8.079418269359271 46.19138891714378 0  -8.424925627308896 46.73501098865415 0  -8.655012214946357 46.45651954237857 0  -9 46.99999999997333 0  -8.312232178909827 48.91330299044586 0  -8.083019960475701 49.19180131215393 0  -8.4271981217766 49.73508263023046 0  -8.65636864341344 49.45661772472193 0  -9 49.99999999997949 0  -5.900865342168412 43.12205449614475 0  -6.131055792264826 42.84323478447134 0  -5.78222012032339 42.2984626296118 0  -5.552046897104725 42.57848880301189 0  -5.201860240702979 42.02182302927968 0  -5.819493727676739 23.94446222043433 0  -6.06213262483065 24.20972815677214 0  -5.711791417306745 24.75422065808694 0  -6.304595320207716 24.47507248868871 0  -5.469313949770399 24.4900328184025 0  -5.118889068566261 25.02255836060523 0  -8.319645731512205 52.09005644312261 0  -8.086226391925331 51.8246472178586 0  -8.426100734934892 51.27971629309245 0  -7.852635106644288 51.55930315640622 0  -8.659567891017689 51.54512424203397 0  -9 50.99999999998153 0  -5.876140439401787 38.11151351105016 0  -6.112488138387609 37.84116803360866 0  -5.763651366726962 37.30176122063659 0  -6.349005325792626 37.5708862481581 0  -5.527307011726606 37.57341721961306 0  -5.177096297534903 37.02080312571618 0  -5.863385900735431 34.94424511980647 0  -6.102712449342418 35.20934640153614 0  -5.757270700545706 35.75354949964347 0  -6.341863336104624 35.47452026632426 0  -5.518090807036087 35.48969365787589 0  -5.172601968764234 36.02145837098189 0  -7.951872246195585 50.51077610979296 0  -7.902214964760004 51.03506898743641 0  -8.47611341392839 50.75532754485081 0  -6.242821122474934 36.52245799713818 0  -6.295937926497916 37.04653151311859 0  -5.710141433129816 36.77564200703459 0  -6.292306129343915 35.99833119869997 0  -5.708010382102426 36.27536468488181 0  -6.067729919109354 25.2846765214966 0  -6.186116506228498 24.87991978400294 0  -5.593571726459142 25.15778639711332 0  -8.05733159992149 25.75399886006846 0  -7.938505897423728 26.15300627805295 0  -8.528738662870115 25.87700333466686 0  -7.027185716752681 34.39251542758968 0  -6.684283772381674 34.93365501168648 0  -6.931336331433249 35.25595740132869 0  -7.27427034377807 34.71501076055961 0  -7.521147384513307 35.03746486546973 0  -7.181484904963328 52.64066799154135 0  -7.516804473470289 52.10011032968202 0  -7.275267066503667 51.77816179755803 0  -6.93997153385547 52.31879271106218 0  -6.698239058384509 51.99698172228825 0  -7.037947664107981 38.64056016407246 0  -6.693718238992351 38.10585616551258 0  -6.938038717855708 37.7790930517825 0  -7.282246872885342 38.31400335349819 0  -7.52675095004671 37.98739435587647 0  -6.999604513615932 23.39263685948625 0  -6.651864044407215 23.93394020492321 0  -6.902342377791814 24.25634779030066 0  -7.250119153308414 23.71520673407839 0  -7.500429068517772 24.03771261465476 0  -7.906857146152318 17.51067452083186 0  -7.857326245197227 18.03177128302608 0  -8.45360109668731 17.75527557598523 0  -7.855825411881233 16.99052112141453 0  -8.453256391997554 17.25537165318839 0  -7.894898253814265 8.510915330189524 0  -7.844777569441051 9.032267486884004 0  -8.447610684489137 8.755459989693856 0  -7.934587779479381 2.425081958400512 0  -7.860415597669839 2.988889592098666 0  -8.467445132647923 2.712572612731723 0  -7.843348671588953 7.990559423120253 0  -8.447282948261758 8.255450011252659 0  -7.902959629665425 49.99053805435814 0  -8.475757161884252 50.25542463345706 0  -6.175616878695072 41.61514217491764 0  -6.268581782503915 42.08988403841129 0  -5.
[...]
<PointData  Vectors="f_27"> 
<DataArray  type="Float64"  Name="f_27"  NumberOfComponents="3" format="ascii">0.0000000000000000e+00 0.0000000000000000e+00 0.0000000000000000e+00  6.0465018810141522e-06 -6.4817661562929759e-03 0.0000000000000000e+00  0.0000000000000000e+00 0.0000000000000000e+00 0.0000000000000000e+00  0.0000000000000000e+00 0.0000000000000000e+00 0.0000000000000000e+00  6.7652199435761843e-07 -9.0884526696080430e-03 0.0000000000000000e+00  1.3361047158632547e-05 -9.3438765492631446e-03 0.0000000000000000e+00  0.0000000000000000e+00 0.0000000000000000e+00 0.0000000000000000e+00  2.8669742190578147e-05 -6.5973659761202940e-03 0.0000000000000000e+00  0.0000000000000000e+00 0.0000000000000000e+00 0.0000000000000000e+00  0.0000000000000000e+00 0.0000000000000000e+00 0.0000000000000000e+00  5.6311042372262718e-05 -9.0559065574414947e-03 0.0000000000000000e+00  4.4694832143495186e-05 -9.3792804496554052e-03 0.0000000000000000e+00  0.0000000000000000e+00 0.0000000000000000e+00 0.0000000000000000e+00  2.9459649591370939e-05 -6.4041475752139657e-03 0.0000000000000000e+00  0.0000000000000000e+00 0.0000000000000000e+00 0.0000000000000000e+00  0.0000000000000000e+00 0.0000000000000000e+00 0.0000000000000000e+00  5.7391370126409630e-05 -8.9690352539327865e-03 0.0000000000000000e+00  4.8242766483875376e-05 -9.2932957509829894e-03 0.0000000000000000e+00  0.0000000000000000e+00 0.0000000000000000e+00 0.0000000000000000e+00  1.2751262577681847e-05 -6.7355916622565733e-03 0.0000000000000000e+00  0.0000000000000000e+00 0.0000000000000000e+00 0.0000000000000000e+00  0.0000000000000000e+00 0.0000000000000000e+00 0.0000000000000000e+00  1.9876495019150044e-05 -9.0186869402091412e-03 0.0000000000000000e+00  2.7313304402799466e-05 -9.3259323067238359e-03 0.0000000000000000e+00  0.0000000000000000e+00 0.0000000000000000e+00 0.0000000000000000e+00  2.0670887561382443e-05 -6.5631028464094134e-03 0.0000000000000000e+00  4.3766699622526403e-05 -8.8054456511699533e-03 0.0000000000000000e+00  3.8773348976785332e-05 -9.1165109448573724e-03 0.0000000000000000e+00  0.0000000000000000e+00 0.0000000000000000e+00 0.0000000000000000e+00  0.0000000000000000e+00 0.0000000000000000e+00 0.0000000000000000e+00  0.0000000000000000e+00 0.0000000000000000e+00 0.0000000000000000e+00  2.8789939933038328e-05 -6.5522888010209153e-03 0.0000000000000000e+00  0.0000000000000000e+00 0.0000000000000000e+00 0.0000000000000000e+00  0.0000000000000000e+00 0.0000000000000000e+00 0.0000000000000000e+00  4.1014764155647482e-05 -8.9018921489558145e-03 0.0000000000000000e+00  4.1291007407606987e-05 -9.1487673914840695e-03 0.0000000000000000e+00  0.0000000000000000e+00 0.0000000000000000e+00 0.0000000000000000e+00  2.5690871858571222e-05 -6.3364862911980983e-03 0.0000000000000000e+00  2.2832420799477848e-05 -8.9181522447752525e-03 0.0000000000000000e+00  3.2063345914695747e-05 -9.2349993405429088e-03 0.0000000000000000e+00  0.0000000000000000e+00 0.0000000000000000e+00 0.0000000000000000e+00  0.0000000000000000e+00 0.0000000000000000e+00 0.0000000000000000e+00  0.0000000000000000e+00 0.0000000000000000e+00 0.0000000000000000e+00  1.8845458785532466e-05 -6.4487219548719638e-03 0.0000000000000000e+00  0.0000000000000000e+00 0.0000000000000000e+00 0.0000000000000000e+00  0.0000000000000000e+00 0.0000000000000000e+00 0.0000000000000000e+00  1.6708118632356244e-05 -9.0269218549910244e-03 0.0000000000000000e+00  2.5785973947307624e-05 -9.2559006188667730e-03 0.0000000000000000e+00  0.0000000000000000e+00 0.0000000000000000e+00 0.0000000000000000e+00  3.7923256189513779e-05 -6.7956086490635519e-03 0.0000000000000000e+00  3.0873337205868853e-05 -8.8373475182368880e-03 0.0000000000000000e+00  4.2709911676728251e-05 -9.1270587881796660e-03 0.0000000000000000e+00  0.0000000000000000e+00 0.0000000000000000e+00 0.0000000000000000e+00  0.0000000000000000e+00 0.0000000000000000e+00 0.0000000000000000e+00  0.0000000000000000e+00 0.0000000000000000e+00 0.0000000000000000e+00  1.8733221742848792e-05 -6.8034201943168154e-03 0.0000000000000000e+00  3.7881892176837378e-05 -8.8380458324572361e-03 0.0000000000000000e+00  3.2268047157955645e-05 -9.1229564271966823e-03 0.0000000000000000e+00  0.0000000000000000e+00 0.0000000000000000e+00 0.0000000000000000e+00  0.0000000000000000e+00 0.0000000000000000e+00 0.0000000000000000e+00  5.7696624877582313e-05 -9.4868089355571849e-03 0.0000000000000000e+00  6.4896618202048807e-05 -9.4954009359980406e-03 0.0000000000000000e+00  5.7581186495923396e-05 -9.4945202631494374e-03 0.0000000000000000e+00  5.4788436006667217e-05 -9.4936922724077159e-03 0.0000000000000000e+00  6.1198859001108694e-05 -9.4944211488452827e-03 0.0000000000000000e+00  5.9440456386599357e-05 -9.4643559610403556e-03 0.0000000000000000e+00  7.4446688136077497e-05 -9.4308330921883954e-03 0.0000000000000000e+00  6.9365091030985861e-05 -9.4307343342970966e-03 0.0000000000000000e+00  7.5198091942519577e-05 -9.4438540934327509e-03 0.0000000000000000e+00  7.3131286618584581e-05 -9.4418539742044481e-03 0.0000000000000000e+00  6.8704662721575790e-05 -9.4376113058864917e-03 0.0000000000000000e+00  6.0884888894119960e-05 -9.4016664208447578e-03 0.0000000000000000e+00  6.5473673798593297e-05 -9.4609352539612914e-03 0.0000000000000000e+00  5.7260614025682002e-05 -9.4652751021959483e-03 0.0000000000000000e+00  5.9754081543173232e-05 -9.4704726575665626e-03 0.0000000000000000e+00  5.2928067725129106e-05 -9.4748163367779706e-03 0.0000000000000000e+00  6.1680432610433173e-05 -9.4629368540166316e-03 0.0000000000000000e+00  5.5494540237266571e-05 -9.4223806466218248e-03 0.0000000000000000e+00  6.2209040380424617e-05 -9.7375355436131964e-03 0.0000000000000000e+00  5.5960165562157862e-05 -9.7458202561850459e-03 0.0000000000000000e+00  5.9429192971737212e-05 -9.7495552686938432e-03 0.0000000000000000e+00  5.9070291219901359e-05 -9.7529383834457379e-03 0.0000000000000000e+00  5.7089143534330609e-05 -9.7451741246142587e-03 0.0000000000000000e+00  5.0298937721951899e-05 -9.7099172802237246e-03 0.0000000000000000e+00  5.3834301094960230e-05 -9.5785045087087989e-03 0.0000000000000000e+00  6.4487498266594225e-05 -9.5720586193719613e-03 0.0000000000000000e+00  5.4815700420276943e-05 -9.5875332401178827e-03 0.0000000000000000e+00  5.2779404985702563e-05 -9.5791556321791690e-03 0.0000000000000000e+00  5.9579586561159066e-05 -9.5821530747170931e-03 0.0000000000000000e+00  5.9828688797455329e-05 -9.5451473717258085e-03 0.0000000000000000e+00  6.7745305731718773e-05 -9.7688342486518896e-03 0.0000000000000000e+00  6.1009284494226101e-05 -9.7632425462980815e-03 0.0000000000000000e+00  6.4215835158611424e-05 -9.7707772042634113e-03 0.0000000000000000e+00  6.1644521373686528e-05 -9.7670812440298904e-03 0.0000000000000000e+00  6.2516155973437530e-05 -9.7663066924074150e-03 0.0000000000000000e+00  6.0913361146286919e-05 -9.7295457035692454e-03 0.0000000000000000e+00  6.5060783384108468e-05 -9.7252083213016562e-03 0.0000000000000000e+00  6.0237231905416588e-05 -9.7251600309016372e-03 0.0000000000000000e+00  6.0643902637218356e-05 -9.7286775663499130e-03 0.0000000000000000e+00  5.9258806682632288e-05 -9.7257826969743225e-03 0.0000000000000000e+00  6.4354416078327419e-05 -9.7287317827075472e-03 0.0000000000000000e+00  6.5610986092995118e-05 -9.6911210958499239e-03 0.0000000000000000e+00  6.0965526955143417e-05 -9.6970628558718172e-03 0.0000000000000000e+00  5.6251694070755087e-05 -9.7062586525551390e-03 0.0000000000000000e+00  5.8812212627838119e-05 -9.7094193121528647e-03 0.0000000000000000e+00  5.9005753074687952e-05 -9.7129264237198979e-03 0.0000000000000000e+00  5.6590872660453738e-05 -9.7041825303448917e-03 0.0000000000000000e+00  5.1169709573548306e-05 -9.6665327695479100e-03 0.0000000000000000e+00  7.0077837275155756e-05 -9.6777301918056866e-03 0.0000000000000000e+00  6.4790329426527149e-05 -9.6770935101325693e-03 0.0000000000000000e+00  7.0523765299728729e-05 -9.6897690059137686e-03 0.0000000000000000e+00  6.8201658121052426e-05 -9.6870119631606161e-03 0.0000000000000000e+00  6.4123187660710358e-05 -9.6851996095281539e-03 0.0000000000000000e+00  5.6451879376144269e-05 -9.6494538958783078e-03 0.0000000000000000e+00  7.7534864776574724e-05 -9.6491663201390236e-03 0.0000000000000000e+00  6.2563578719807323e-05 -9.6545080374844973e-03 0.0000000000000000e+00  7.0920741892274575e-05 -9.6633534957975952e-03 0.0000000000000000e+00  5.9516948294551964e-05 -9.6555081958266641e-03 0.0000000000000000e+00  6.9807693118135360e-05 -9.6644259889771839e-03 0.0000000000000000e+00  6.7671992080238825e-05 -9.6306670835917419e-03 0.0000000000000000e+00  7.4261305463323282e-05 -9.6010569880056150e-03 0.0000000000000000e+00  6.2611682167692709e-05 -9.6076349260914191e-03 0.0000000000000000e+00  6.9700704786063115e-05 -9.6101079085866709e-03 0.0000000000000000e+00  6.0820737008010113e-05 -9.6041879363968786e-03 0.0000000000000000e+00  6.4702443463402967e-05 -9.6089955181796957e-03 0.0000000000000000e+00  6.0491656680974301e-05 -9.5765875183053059e-03 0.0000000000000000e+00  4.7464157853635956e-05 -9.0564744838524287e-03 0.0000000000000000e+00  5.9962720718119211e-05 -9.5732911722634963e-03 0.0000000000000000e+00  6.6313004510339707e-05 -9.1664046993413014e-03 0.0000000000000000e+00  4.2396266785334898e-05 -6.5111438900746291e-03 0.0000000000000000e+00  0.0000000000000000e+00 0.0000000000000000e+00 0.0000000000000000e+00  4.8593952611388433e-05 -8.9996574740677168e-03 0.0000000000000000e+00  5.4899845965977998e-05 -9.5122018770614145e-03 0.0000000000000000e+00  5.6100586786930896e-05 -9.1090362758763296e-03 0.0000000000000000e+00  3.7799227034309960e-05 -6.4448857973021636e-03 0.0000000000000000e+00  0.0000000000000000e+00 0.0000000000000000e+00 0.0000000000000000e+00  5.2639576792919608e-05 -9.0828085141326995e-03 0.0000000000000000e+00  5.0152603563460824e-05 -9.5858368916289498e-03 0.0000000000000000e+00  4.1652158147394994e-05 -9.2336481327523479e-03 0.0000000000000000e+00  2.5604617210989201e-05 -6.4585829437735810e-03 0.0000000000000000e+00  0.0000000000000000e+00 0.0000000000000000e+00 0.0000000000000000e+00  6.3463932195612015e-05 -8.9715225891291370e-03 0.0000000000000000e+00  9.0094279023299239e-05 -9.4778681561690989e-03 0.0000000000000000e+00  4.2438041322567265e-05 -9.1201226877521361e-03 0.0000000000000000e+00  3.0253715453804297e-05 -6.4615766408634657e-03 0.0000000000000000e+00  0.0000000000000000e+00 0.0000000000000000e+00 0.0000000000000000e+00  5.0901210396202162e-05 -9.0964422753905625e-03 0.0000000000000000e+00  4.8832290758483021e-05 -9.6046684686553110e-03 0.0000000000000000e+00  4.1671533917195261e-05 -9.1976375487373037e-03 0.0000000000000000e+00  3.0425171386136180e-05 -6.5366437877640675e-03 0.0000000000000000e+00  0.0000000000000000e+00 0.0000000000000000e+00 0.0000000000000000e+00  5.2877271120710005e-05 -9.1144754309743139e-03 0.0000000000000000e+00  6.1063590375934251e-05 -9.6281327391663889e-03 0.0000000000000000e+00  6.6502953441351242e-05 -9.2184587803498166e-03 0.0000000000000000e+00  4.4474337826179935e-05 -6.5662610683636484e-03 0.0000000000000000e+00  0.0000000000000000e+00 0.0000000000000000e+00 0.0000000000000000e+00  5.2581735621273101e-05 -9.1606905337310168e-03 0.0000000000000000e+00  5.8445835085738170e-05 -9.6593583334011867e-03 0.0000000000000000e+00  6.2210314679413267e-05 -9.3091118207177075e-03 0.0000000000000000e+00  4.5661421646844097e-05 -6.5392434273723954e-03 0.0000000000000000e+00  0.0000000000000000e+00 0.0000000000000000e+00 0.0000000000000000e+00  4.6374935133335635e-05 -9.1469848147183019e-03 0.0000000000000000e+00  4.4323849959421051e-05 -9.6434264554664528e-03 0.0000000000000000e+00  3.7401555131115348e-05 -9.2875134109709837e-03 0.0000000000000000e+00  2.2619908567671309e-05 -6.5179406582041091e-03 0.0000000000000000e+00  0.0000000000000000e+00 0.0000000000000000e+00 0.0000000000000000e+00  5.2740534125828737e-05 -8.8439704813787125e-03 0.0000000000000000e+00  5.1986667741157493e-05 -9.3565718569357803e-03 0.0000000000000000e+00  4.5772054357413449e-05 -8.9609109758232823e-03 0.0000000000000000e+00  3.2022551626034577e-05 -6.2924197286295704e-03 0.0000000000000000e+00  0.0000000000000000e+00 0.0000000000000000e+00 0.0000000000000000e+00  5.6260177705885428e-05 -8.8302905316021973e-03 0.0000000000000000e+00  5.4644126228495342e-05 -9.3358406213165084e-03 0.0000000000000000e+00  4.6440638192819361e-05 -8.9930525303710609e-03 0.0000000000000000e+00  2.8923237547102876e-05 -6.2157030857057970e-03 0.0000000000000000e+00  0.0000000000000000e+00 0.0000000000000000e+00 0.0000000000000000e+00  6.2530733787318803e-05 -8.8866535201939083e-03 0.0000000000000000e+00  8.9667721070782247e-05 -9.3959434675835278e-03 0.0000000000000000e+00  3.7264245496056305e-05 -9.0394886386010332e-03 0.0000000000000000e+00  2.9590004779106642e-05 -6.3762256774986242e-03 0.0000000000000000e+00  0.0000000000000000e+00 0.0000000000000000e+00 0.0000000000000000e+00  6.8638657879930155e-05 -9.0562609717193300e-03 0.0000000000000000e+00  9.1668403797429444e-05 -9.5412913884596520e-03 0.0000000000000000e+00  5.3874600986007609e-05 -9.0871285632092048e-03 0.0000000000000000e+00  6.5709436042888419e-05 -9.5926643486036814e-03 0.0000000000000000e+00  3.9500969443242043e-05 -6.4354480923385915e-03 0.0000000000000000e+00  0.0000000000000000e+00 0.0000000000000000e+00 0.0000000000000000e+00  5.3233713958577083e-05 -8.8405620496891033e-03 0.0000000000000000e+00  6.3039623422469400e-05 -9.3244169136118930e-03 0.0000000000000000e+00  6.7436071313307740e-05 -8.9237778867252704e-03 0.0000000000000000e+00  6.7018016131130842e-05 -9.3760323485663540e-03 0.0000000000000000e+00  4.2947260861159477e-05 -6.2860583026827579e-03 0.0000000000000000e+00  0.0000000000000000e+00 0.0000000000000000e+00 0.0000000000000000e+00  6.7106481050045112e-05 -8.9593986855178876e-03 0.0000000000000000e+00  8.5436789431073585e-05 -9.4276609898017831e-03 0.0000000000000000e+00  2.9296174918317825e-05 -9.0690555784059598e-03 0.0000000000000000e+00  5.6300848905181196e-05 -9.4845524669823419e-03 0.0000000000000000e+00  3.0974740486497645e-05 -6.4414090353130515e-03 0.0000000000000000e+00  0.0000000000000000e+00 0.0000000000000000e+00 0.0000000000000000e+00  7.6512604329878405e-05 -8.9853522083233415e-03 0.0000000000000000e+00  1.0109103150570442e-04 -9.4535203600204995e-03 0.0000000000000000e+00  5.7568084063952917e-05 -9.0733335875068308e-03 0.0000000000000000e+00  7.0485877861937020e-05 -9.5131228391359731e-03 0.0000000000000000e+00  4.6378627357529785e-05 -6.2847390596593999e-03 0.0000000000000000e+00  0.0000000000000000e+00 0.0000000000000000e+00 0.0000000000000000e+00  6.0099145979257946e-05 -9.0246198437762583e-03 0.0000000000000000e+00  6.7968545479346626e-05 -9.3813282569695962e-03 0.0000000000000000e+00  6.9254643781642251e-05 -8.6885499483341944e-03 0.0000000000000000e+00  1.3263347055289711e-05 -9.1359912600771885e-03 0.0000000000000000e+00  3.6470088574669675e-05 -9.4898772773070201e-03 0.0000000000000000e+00  -2.5401978905107472e-05 -8.8060937670147877e-03 0.0000000000000000e+00  5.2735469177803727e-05 -9.4602793932069430e-03 0.0000000000000000e+00  -1.7201641856325339e-05 -6.0831249679524349e-03 0.0000000000000000e+00  2.3958246060718831e-05 -9.3182620058827256e-03 0.0000000000000000e+00  5.0518970466113489e-05 -9.5847830105279842e-03 0.0000000000000000e+00  1.8805786989310430e-06 -8.9483667328504098e-03 0.0000000000000000e+00  5.2710260966798432e-05 -9.2752303085330227e-03 0.0000000000000000e+00  5.6358532582866695e-05 -9.5709921226679491e-03 0.0000000000000000e+00  5.6238747736975933e-05 -8.9284300960419481e-03 0.0000000000000000e+00  6.4295143356823571e-05 -9.5543894477574318e-03 0.0000000000000000e+00  7.5919722737299888e-05 -9.5422668908508295e-03 0.0000000000000000e+00  6.5655666829427770e-05 -9.5532690147008201e-03 0.0000000000000000e+00  6.5486143011682916e-05 -9.5547684211423466e-03 0.0000000000000000e+00  5.9622476289078482e-05 -9.5438696706222053e-03 0.0000000000000000e+00  6.5941975427428307e-05 -9.3971690627947801e-03 0.0000000000000000e+00  6.0962673570429505e-05 -9.3913683282874135e-03 0.0000000000000000e+00  6.7621474839141241e-05 -9.4102891035259453e-03 0.0000000000000000e+00  6.9942955706744662e-05 -9.4070377264509515e-03 0.0000000000000000e+00  6.9264832897100769e-05 -9.3937289236709805e-03 0.0000000000000000e+00  5.9183654509226601e-05 -9.5220022339883824e-03 0.0000000000000000e+00  7.0846644250594759e-05 -9.5105034382854704e-03 0.0000000000000000e+00  5.8523833340060073e-05 -9.5233285900003933e-03 0.0000000000000000e+00  5.9360078053678830e-05 -9.5262020468771264e-03 0.0000000000000000e+00  5.2958333207808266e-05 -9.5197053489187566e-03 0.0000000000000000e+00  5.9279307126851437e-05 -9.6342365564425717e-03 0.0000000000000000e+00  7.0199745062219030e-05 -9.6253965481154866e-03 0.0000000000000000e+00  6.0722146373230640e-05 -9.6336645067555959e-03 0.0000000000000000e+00  6.0463438269880897e-05 -9.6339739045062621e-03 0.0000000000000000e+00  5.3941353826371608e-05 -9.6187295984943542e-03 0.0000000000000000e+00  5.7784745159954453e-05 -9.2743359651358444e-03 0.0000000000000000e+00  6.7100041062394876e-05 -9.6331361744499775e-03 0.0000000000000000e+00  6.9015008919780444e-05 -8.9409717956895167e-03 0.0000000000000000e+00  5.1634719487726295e-05 -9.6019700171089059e-03 0.0000000000000000e+00  3.2804412692768258e-05 -6.1981763255389488e-03 0.0000000000000000e+00  5.5384571876983611e-05 -9.3327698959326053e-03 0.0000000000000000e+00  6.5043821968948195e-05 -9.6904260947332389e-03 0.0000000000000000e+00  6.8432668754235757e-05 -8.9958800039184831e-03 0.0000000000000000e+00  5.3772145588480405e-05 -9.4275783638325603e-03 0.0000000000000000e+00  5.8411465072837074e-05 -9.6901659310527841e-03 0.0000000000000000e+00  3.5887624935859575e-05 -6.3347856323001227e-03 0.0000000000000000e+00  4.7355332673052391e-05 -9.6600999182520162e-03 0.0000000000000000e+00  3.1337182619308654e-05 -6.2482967699723614e-03 0.0000000000000000e+00  5.5540415149286381e-05 -9.3515512864380968e-03 0.0000000000000000e+00  3.4958238318801508e-05 -5.9843908998143559e-03 0.0000000000000000e+00  1.0259931639479146e-05 -9.1579318669124752e-03 0.0000000000000000e+00  4.4589481178966791e-05 -9.4693393482734589e-03 0.0000000000000000e+00  -1.3494302391736596e-05 -8.7881697542707606e-03 0.0000000000000000e+00  5.2565617831281363e-05 -9.6288329100498310e-03 0.0000000000000000e+00  5.7026768891812137e-05 -9.6349609166152157e-03 0.0000000000000000e+00  5.5050094101169494e-05 -9.6318839568882968e-03 0.0000000000000000e+00  6.7627216461729124e-05 -9.4180988004711891e-03 0.0000000000000000e+00  6.8400221744529947e-05 -9.4210984498723453e-03 0.0000000000000000e+00  6.7266708845571097e-05 -9.4150738676840335e-03 0.0000000000000000e+00  5.0253761209380375e-05 -9.5289332469188481e-03 0.0000000000000000e+00  5.0694358964672765e-05 -9.5279564283615881e-03 0.0000000000000000e+00  5.3862605501321819e-05 -9.5294869288407476e-03 0.0000000000000000e+00  5.6888377477420430e-05 -9.5497169536373702e-03 0.0000000000000000e+00  6.0395818061453336e-05 -9.5518862751875974e-03 0.0000000000000000e+00  6.0357611843492881e-05 -9.5522390112395116e-03 0.0000000000000000e+00  1.5759892733371940e-05 -9.2589843576785999e-03 0.0000000000000000e+00  4.5626054428053346e-05 -9.5471169722852987e-03 0.0000000000000000e+00  -1.6126464163578281e-05 -8.8931968324414967e-03 0.0000000000000000e+00  5.8433679119720869e-05 -9.4601388502810555e-03 0.0000000000000000e+00  7.0525684591984657e-05 -9.4536007169383780e-03 0.0000000000000000e+00  6.0077801546823856e-05 -9.4978813427171443e-03 0.0000000000000000e+00  6.8304178311646998e-05 -9.1910395422061270e-03 0.0000000000000000e+00  6.4636920882804686e-05 -9.3847883476333317e-03 0.0000000000000000e+00  7.0986310671297676e-05 -9.4317256975206317e-03 0.0000000000000000e+00  5.4409099551422736e-05 -9.4337365836432707e-03 0.0000000000000000e+00  5.5596387672968848e-05 -9.4165678332510643e-03 0.0000000000000000e+00  5.4669360080089607e-05 -9.4671935622375920e-03 0.0000