<?xml version="1.0"?>
<VTKFile type="UnstructuredGrid"  version="0.1"  >
<UnstructuredGrid>
<Piece  NumberOfPoints="2530" NumberOfCells="4544">
<Points>
<DataArray  type="Float64"  NumberOfComponents="3"  format="ascii">-0.005 0.02899999999991747 0  -0.005567606561449265 0.02972952735170602 0  -0.005567606561449265 0.02922952735170672 0  -0.006135213122898529 0.02945905470349596 0  -0.005 0.02949999999991678 0  -0.005 0.02999999999991609 0  -0.008999999999999999 0.02999999999991609 0  -0.008477881325601233 0.02929081058473642 0  -0.008999999999999999 0.02949999999991678 0  -0.008999999999999999 0.02899999999991747 0  -0.008477881325601233 0.02979081058473573 0  -0.007955762651202469 0.02958162116955536 0  -0.008999999999999999 0.05699999999999127 0  -0.008455575182696982 0.05771508614433647 0  -0.008455575182696982 0.05721508614433456 0  -0.007911150365393967 0.05743017228867785 0  -0.008999999999999999 0.05749999999999318 0  -0.008999999999999999 0.05799999999999508 0  -0.006562500000003323 0.04699999999996404 0  -0.007410380031513026 0.04710817040743875 0  -0.006801005031513838 0.04733733707410809 0  -0.007039510063024354 0.04767467414825214 0  -0.007171875000002511 0.0467708333332947 0  -0.007781250000001699 0.04654166666662536 0  -0.006562499999996975 0.007999999999982715 0  -0.007410380031513406 0.007891829592506899 0  -0.006801005031512716 0.007662662925842622 0  -0.007039510063028456 0.007325325851702528 0  -0.007171874999997664 0.008229166666646992 0  -0.007781249999998355 0.008458333333311269 0  -0.006562499999996577 0.01099999999997411 0  -0.007410380031513544 0.01110817040744999 0  -0.006801005031512696 0.01133733707411394 0  -0.007039510063028815 0.01167467414825377 0  -0.007171874999997425 0.01077083333331016 0  -0.007781249999998272 0.01054166666664622 0  -0.005 0.02399999999993442 0  -0.005590674212597458 0.02326230314954376 0  -0.005 0.02349999999993588 0  -0.005 0.02299999999993733 0  -0.005590674212597458 0.02376230314954231 0  -0.006181348425194916 0.0235246062991502 0  -0.005 0.02099999999994222 0  -0.005564630812322937 0.0217315610722294 0  -0.005564630812322937 0.02123156107223086 0  -0.006129261624645875 0.0214631221445195 0  -0.005 0.02149999999994076 0  -0.005 0.0219999999999393 0  -0.008999999999999999 0.01999999999994686 0  -0.008409325787402531 0.01926230314955595 0  -0.008999999999999999 0.01949999999994807 0  -0.008999999999999999 0.01899999999994928 0  -0.008409325787402531 0.01976230314955475 0  -0.007818651574805061 0.01952460629916263 0  -0.008999999999999999 0.02499999999992978 0  -0.008409325787402541 0.02573769685032071 0  -0.008409325787402541 0.02523769685032191 0  -0.007818651574805081 0.02547539370071405 0  -0.008999999999999999 0.02549999999992857 0  -0.008999999999999999 0.02599999999992736 0  -0.008999999999999999 0.01599999999995916 0  -0.008409325787402512 0.01526230314956849 0  -0.008999999999999999 0.01549999999996053 0  -0.008999999999999999 0.0149999999999619 0  -0.008409325787402512 0.01576230314956713 0  -0.007818651574805024 0.01552460629917509 0  -0.008999999999999999 0.01799999999995125 0  -0.008435915727826615 0.01725427993967504 0  -0.008999999999999999 0.01749999999995307 0  -0.008999999999999999 0.01699999999995488 0  -0.008435915727826615 0.01775427993967323 0  -0.007871831455653231 0.0175085598793952 0  -0.008999999999999999 0.02699999999992539 0  -0.008434239959724898 0.02774706184850321 0  -0.008434239959724898 0.02724706184850503 0  -0.007868479919449797 0.02749412369708466 0  -0.008999999999999999 0.02749999999992357 0  -0.008999999999999999 0.02799999999992175 0  -0.008999999999999999 0.01399999999996497 0  -0.008437765310767197 0.0132645357198448 0  -0.008999999999999999 0.01349999999996647 0  -0.008999999999999999 0.01299999999996796 0  -0.008437765310767197 0.0137645357198433 0  -0.007875530621534396 0.01352907143972163 0  -0.005 0.002999999999993196 0  -0.005590674212597853 0.003737696850384681 0  -0.005590674212597853 0.003237696850385873 0  -0.006181348425195706 0.00347539370077855 0  -0.005 0.003499999999992004 0  -0.005 0.003999999999990813 0  -0.005 0.004999999999989164 0  -0.005559084057905018 0.005728935712846076 0  -0.005559084057905018 0.005228935712846881 0  -0.006118168115810037 0.005457871425704597 0  -0.005 0.00549999999998836 0  -0.005 0.005999999999987554 0  -0.005 0.05299999999997999 0  -0.005590674212599118 0.05373769685037712 0  -0.005590674212599118 0.05323769685037585 0  -0.006181348425198237 0.05347539370077171 0  -0.005 0.05349999999998126 0  -0.005 0.05399999999998254 0  -0.008999999999999999 0.05199999999997907 0  -0.008409325787400907 0.05126230314958195 0  -0.008999999999999999 0.0514999999999778 0  -0.008999999999999999 0.05099999999997653 0  -0.008409325787400907 0.05176230314958322 0  -0.007818651574801817 0.05152460629918738 0  -0.005 0.03699999999993814 0  -0.005590674212599064 0.03626230314954104 0  -0.005 0.03649999999993686 0  -0.005 0.03599999999993558 0  -0.005590674212599064 0.03676230314954232 0  -0.006181348425198127 0.03652460629914649 0  -0.005 0.03799999999993905 0  -0.005590674212599059 0.03873769685033618 0  -0.005590674212599059 0.0382376968503349 0  -0.006181348425198119 0.03847539370073075 0  -0.005 0.03849999999994033 0  -0.005 0.0389999999999416 0  -0.008999999999999999 0.04499999999995907 0  -0.008409325787400921 0.04426230314956281 0  -0.008999999999999999 0.04449999999995852 0  -0.008999999999999999 0.04399999999995796 0  -0.008409325787400921 0.04476230314956336 0  -0.007818651574801844 0.04452460629916766 0  -0.005 0.05499999999998635 0  -0.005561924071815199 0.05574035198473451 0  -0.005561924071815199 0.05524035198473292 0  -0.006123848143630398 0.05548070396947949 0  -0.005 0.05549999999998795 0  -0.005 0.05599999999998954 0  -0.008999999999999999 0.04999999999997271 0  -0.008437330811979935 0.04925705943891855 0  -0.008999999999999999 0.04949999999997112 0  -0.008999999999999999 0.04899999999996952 0  -0.008437330811979935 0.04975705943892015 0  -0.00787466162395987 0.04951411887786759 0  -0.005 0.03499999999993177 0  -0.005554118008684467 0.03427588870688815 0  -0.005 0.03449999999993018 0  -0.005 0.03399999999992859 0  -0.005554118008684467 0.03477588870688975 0  -0.006108236017368934 0.03455177741384772 0  -0.005 0.03999999999994542 0  -0.005565787062146483 0.04074708348495108 0  -0.005565787062146483 0.0402470834849495 0  -0.006131574124292967 0.04049416696995358 0  -0.005 0.04049999999994701 0  -0.005 0.04099999999994859 0  -0.008999999999999999 0.04299999999995415 0  -0.008434212937853522 0.04225291651494782 0  -0.008999999999999999 0.04249999999995224 0  -0.008999999999999999 0.04199999999995033 0  -0.008434212937853522 0.04275291651494972 0  -0.007868425875707045 0.0425058330299453 0  -0.008249816699198017 0.05835749671693449 0  -0.008080483532295991 0.05789383450280617 0  -0.008624908349599008 0.05817874835846479 0  -0.005 0.05699999999999127 0  -0.005564814814815426 0.05763425925925437 0  -0.005564814814815426 0.05713425925925246 0  -0.006129629629630853 0.05726851851851365 0  -0.005 0.05749999999999318 0  -0.005 0.05799999999999508 0  -0.007812500000000279 0.05881250000000175 0  -0.007487215909092686 0.05955539772727215 0  -0.007906250000003019 0.05940625000000088 0  -0.008000000000005759 0.06 0  -0.007393465909089946 0.05896164772727303 0  -0.006974431818179612 0.0591107954545443 0  -0.008269129548671622 0.01109390078343537 0  -0.008025189774334947 0.0108177837250408 0  -0.008390624999999135 0.01027083333331175 0  -0.008634564774335812 0.01054695039170632 0  -0.008999999999999999 0.009999999999977279 0  -0.008269129548671525 0.007906099216521786 0  -0.00802518977433494 0.008182216274916528 0  -0.008390624999999177 0.008729166666645676 0  -0.008634564774335763 0.008453049608250935 0  -0.008999999999999999 0.008999999999980083 0  -0.008269129548669827 0.04709390078342088 0  -0.008025189774335762 0.04681778372502312 0  -0.008390625000000849 0.04627083333329277 0  -0.008634564774334913 0.04654695039169052 0  -0.008999999999999999 0.04599999999996016 0  -0.008273872863797757 0.03191632356681653 0  -0.008025109529492163 0.03218405924682916 0  -0.008388173097593283 0.03272589746338432 0  -0.007776346195186568 0.03245179492684179 0  -0.008636936431898879 0.03245816178337169 0  -0.008999999999999999 0.03299999999992685 0  -0.008017414784897241 0.03353452586113938 0  -0.007896880490041905 0.03299316039399058 0  -0.00850870739244862 0.03326726293053311 0  -0.007057671392325 0.03137590312127503 0  -0.007417008793755784 0.03191384902405841 0  -0.007160048097594804 0.03223839746338272 0  -0.00680071069616402 0.03170045156059935 0  -0.006543750000003041 0.03202499999992366 0  -0.007883928571428122 0.00949999999997868 0  -0.007832589285713197 0.01002083333331245 0  -0.00844196428571406 0.009749999999977979 0  -0.007832589285713239 0.008979166666644976 0  -0.00844196428571406 0.009249999999979382 0  -0.007040819314031163 0.03285586844587998 0  -0.007408582754608865 0.03265383168636089 0  -0.006792284657017102 0.03244043422290183 0  -0.005872353521460591 0.05810919245179558 0  -0.006000991575545722 0.05768885548515462 0  -0.005436176760730296 0.05805459622589533 0  -0.00786502184884123 0.04771008739533377 0  -0.007823135924421465 0.04712587703097956 0  -0.007452265955932792 0.04769238077179296 0  -0.007865021848844505 0.007289912604609198 0  -0.00782313592442143 0.007874122968960234 0  -0.007452265955936481 0.007307619228155863 0  -0.007865021848844829 0.01171008739534793 0  -0.007823135924421552 0.01112587703099708 0  -0.007452265955936822 0.01169238077180085 0  -0.008184288543895116 0.02249999999993832 0  -0.007988733012405148 0.02298711832054615 0  -0.007383909739089816 0.02298711832054615 0  -0.007793177480915178 0.02347423664115397 0  -0.007579465270579786 0.02249999999993833 0  -0.006974641997264455 0.02249999999993833 0  -0.007988733012405137 0.02201288167933051 0  -0.007383909739089808 0.02201288167933051 0  -0.007793177480915159 0.02152576335872269 0  -0.005819248789178329 0.02649
[...]
<PointData  Vectors="f_23"> 
<DataArray  type="Float64"  Name="f_23"  NumberOfComponents="3" format="ascii">0.0000000000000000e+00 0.0000000000000000e+00 0.0000000000000000e+00  4.9716069938522198e-10 -1.7951903872251143e-03 0.0000000000000000e+00  9.4486639042862939e-10 -2.6128041589402870e-03 0.0000000000000000e+00  5.7271865301241637e-10 -2.6976348367576957e-03 0.0000000000000000e+00  0.0000000000000000e+00 0.0000000000000000e+00 0.0000000000000000e+00  0.0000000000000000e+00 0.0000000000000000e+00 0.0000000000000000e+00  0.0000000000000000e+00 0.0000000000000000e+00 0.0000000000000000e+00  -7.9576705157518693e-10 -1.8792734010657874e-03 0.0000000000000000e+00  0.0000000000000000e+00 0.0000000000000000e+00 0.0000000000000000e+00  0.0000000000000000e+00 0.0000000000000000e+00 0.0000000000000000e+00  -3.1967695956241630e-11 -2.5891303372398266e-03 0.0000000000000000e+00  -1.0357829015017288e-09 -2.6864762214655166e-03 0.0000000000000000e+00  0.0000000000000000e+00 0.0000000000000000e+00 0.0000000000000000e+00  2.9176095727475484e-09 -1.7857669739465827e-03 0.0000000000000000e+00  -9.3558420876978935e-08 -2.6115396659772204e-03 0.0000000000000000e+00  -9.8561854449515309e-08 -2.6928337855551682e-03 0.0000000000000000e+00  0.0000000000000000e+00 0.0000000000000000e+00 0.0000000000000000e+00  0.0000000000000000e+00 0.0000000000000000e+00 0.0000000000000000e+00  -7.9196167359827280e-10 -2.7826275725240067e-03 0.0000000000000000e+00  -1.5677037879547856e-09 -2.7860447293036024e-03 0.0000000000000000e+00  1.8575375752253019e-09 -2.7866867328615319e-03 0.0000000000000000e+00  3.1481009048634334e-09 -2.7864844861243921e-03 0.0000000000000000e+00  -2.9383104692420662e-09 -2.7859621227208520e-03 0.0000000000000000e+00  -2.7243457734272338e-09 -2.7727586999874033e-03 0.0000000000000000e+00  7.0853702980074844e-10 -2.7828216053574330e-03 0.0000000000000000e+00  4.3969188764805250e-10 -2.7861059838981757e-03 0.0000000000000000e+00  -1.1226129497450991e-09 -2.7866998154501528e-03 0.0000000000000000e+00  -8.6015127764202156e-10 -2.7865712838981982e-03 0.0000000000000000e+00  2.2267499600883965e-09 -2.7860461410535871e-03 0.0000000000000000e+00  -3.1437987662567379e-10 -2.7720748030003605e-03 0.0000000000000000e+00  -8.0850340380285306e-10 -2.7828502037586826e-03 0.0000000000000000e+00  -2.6457850740935299e-09 -2.7860862783799698e-03 0.0000000000000000e+00  -1.4627748462089390e-09 -2.7867065044573191e-03 0.0000000000000000e+00  -1.6742680124296376e-09 -2.7864794009568460e-03 0.0000000000000000e+00  -1.6261697697669514e-09 -2.7862162236097980e-03 0.0000000000000000e+00  -3.6301368668120575e-09 -2.7740433399380681e-03 0.0000000000000000e+00  0.0000000000000000e+00 0.0000000000000000e+00 0.0000000000000000e+00  1.1491164305656766e-09 -1.8543490607239521e-03 0.0000000000000000e+00  0.0000000000000000e+00 0.0000000000000000e+00 0.0000000000000000e+00  0.0000000000000000e+00 0.0000000000000000e+00 0.0000000000000000e+00  2.3605039731955885e-09 -2.6154580325505211e-03 0.0000000000000000e+00  1.3184494812116549e-09 -2.6936733765267960e-03 0.0000000000000000e+00  0.0000000000000000e+00 0.0000000000000000e+00 0.0000000000000000e+00  1.6453932643968129e-09 -1.8772083817328170e-03 0.0000000000000000e+00  2.5022341743036864e-09 -2.6149062149567861e-03 0.0000000000000000e+00  3.2382693042990384e-09 -2.6986475552894830e-03 0.0000000000000000e+00  0.0000000000000000e+00 0.0000000000000000e+00 0.0000000000000000e+00  0.0000000000000000e+00 0.0000000000000000e+00 0.0000000000000000e+00  0.0000000000000000e+00 0.0000000000000000e+00 0.0000000000000000e+00  1.0109745076020875e-10 -1.8467912305071268e-03 0.0000000000000000e+00  0.0000000000000000e+00 0.0000000000000000e+00 0.0000000000000000e+00  0.0000000000000000e+00 0.0000000000000000e+00 0.0000000000000000e+00  8.8420001772291311e-10 -2.6152053966759211e-03 0.0000000000000000e+00  2.5561759340557027e-10 -2.6942827133966006e-03 0.0000000000000000e+00  0.0000000000000000e+00 0.0000000000000000e+00 0.0000000000000000e+00  1.9554112568115700e-10 -1.8672292565338352e-03 0.0000000000000000e+00  -1.0865313102201144e-09 -2.6142836739219185e-03 0.0000000000000000e+00  -1.4058352799211573e-09 -2.6955593912577568e-03 0.0000000000000000e+00  0.0000000000000000e+00 0.0000000000000000e+00 0.0000000000000000e+00  0.0000000000000000e+00 0.0000000000000000e+00 0.0000000000000000e+00  0.0000000000000000e+00 0.0000000000000000e+00 0.0000000000000000e+00  2.2724670675016450e-09 -1.8527111575414789e-03 0.0000000000000000e+00  0.0000000000000000e+00 0.0000000000000000e+00 0.0000000000000000e+00  0.0000000000000000e+00 0.0000000000000000e+00 0.0000000000000000e+00  2.5889349377923072e-09 -2.6104266031328764e-03 0.0000000000000000e+00  3.0130699907873130e-09 -2.6901230152818097e-03 0.0000000000000000e+00  0.0000000000000000e+00 0.0000000000000000e+00 0.0000000000000000e+00  1.7340527348309910e-10 -1.8536741971286680e-03 0.0000000000000000e+00  0.0000000000000000e+00 0.0000000000000000e+00 0.0000000000000000e+00  0.0000000000000000e+00 0.0000000000000000e+00 0.0000000000000000e+00  -8.1485139500481941e-10 -2.6114129072428091e-03 0.0000000000000000e+00  -4.9930827772338026e-10 -2.6952236029327411e-03 0.0000000000000000e+00  0.0000000000000000e+00 0.0000000000000000e+00 0.0000000000000000e+00  -1.3702647021302978e-09 -1.9323192389444088e-03 0.0000000000000000e+00  -8.8663133197346300e-10 -2.5949342620152252e-03 0.0000000000000000e+00  -2.6539971426846223e-09 -2.6911201731255772e-03 0.0000000000000000e+00  0.0000000000000000e+00 0.0000000000000000e+00 0.0000000000000000e+00  0.0000000000000000e+00 0.0000000000000000e+00 0.0000000000000000e+00  0.0000000000000000e+00 0.0000000000000000e+00 0.0000000000000000e+00  4.8618466818810842e-10 -1.8112112381984708e-03 0.0000000000000000e+00  0.0000000000000000e+00 0.0000000000000000e+00 0.0000000000000000e+00  0.0000000000000000e+00 0.0000000000000000e+00 0.0000000000000000e+00  2.0679689982125879e-09 -2.6085955080900423e-03 0.0000000000000000e+00  1.4137265904635147e-09 -2.6908914168849462e-03 0.0000000000000000e+00  0.0000000000000000e+00 0.0000000000000000e+00 0.0000000000000000e+00  -2.0729611319338373e-10 -1.8666930235004520e-03 0.0000000000000000e+00  7.2337393070624421e-10 -2.6162508876857418e-03 0.0000000000000000e+00  8.6657926903548181e-11 -2.6959128869479335e-03 0.0000000000000000e+00  0.0000000000000000e+00 0.0000000000000000e+00 0.0000000000000000e+00  0.0000000000000000e+00 0.0000000000000000e+00 0.0000000000000000e+00  0.0000000000000000e+00 0.0000000000000000e+00 0.0000000000000000e+00  -1.1373372267834372e-09 -1.8018722712414472e-03 0.0000000000000000e+00  -1.5469477245306373e-09 -2.5895748774882738e-03 0.0000000000000000e+00  -1.3739385699948615e-09 -2.6840959516263594e-03 0.0000000000000000e+00  0.0000000000000000e+00 0.0000000000000000e+00 0.0000000000000000e+00  0.0000000000000000e+00 0.0000000000000000e+00 0.0000000000000000e+00  0.0000000000000000e+00 0.0000000000000000e+00 0.0000000000000000e+00  2.8117235451311560e-09 -1.8544089717807805e-03 0.0000000000000000e+00  6.8725962839954805e-09 -2.6155069238936149e-03 0.0000000000000000e+00  7.0062684262241933e-09 -2.6939491849218332e-03 0.0000000000000000e+00  0.0000000000000000e+00 0.0000000000000000e+00 0.0000000000000000e+00  0.0000000000000000e+00 0.0000000000000000e+00 0.0000000000000000e+00  0.0000000000000000e+00 0.0000000000000000e+00 0.0000000000000000e+00  4.0821039490524049e-09 -1.8672122454225963e-03 0.0000000000000000e+00  0.0000000000000000e+00 0.0000000000000000e+00 0.0000000000000000e+00  0.0000000000000000e+00 0.0000000000000000e+00 0.0000000000000000e+00  8.6478222408665872e-09 -2.6142938771657439e-03 0.0000000000000000e+00  1.1201575050246598e-08 -2.6955879254600156e-03 0.0000000000000000e+00  0.0000000000000000e+00 0.0000000000000000e+00 0.0000000000000000e+00  1.0259362812688895e-09 -1.8417436319123064e-03 0.0000000000000000e+00  0.0000000000000000e+00 0.0000000000000000e+00 0.0000000000000000e+00  0.0000000000000000e+00 0.0000000000000000e+00 0.0000000000000000e+00  2.4571273890293374e-09 -2.6117882272916702e-03 0.0000000000000000e+00  5.0421622733300437e-10 -2.6911212513281131e-03 0.0000000000000000e+00  0.0000000000000000e+00 0.0000000000000000e+00 0.0000000000000000e+00  3.8554730257079767e-09 -1.8596910055726232e-03 0.0000000000000000e+00  5.9805862284961045e-09 -2.5939222563444771e-03 0.0000000000000000e+00  2.9868118289970754e-09 -2.6865351309416775e-03 0.0000000000000000e+00  0.0000000000000000e+00 0.0000000000000000e+00 0.0000000000000000e+00  0.0000000000000000e+00 0.0000000000000000e+00 0.0000000000000000e+00  0.0000000000000000e+00 0.0000000000000000e+00 0.0000000000000000e+00  -1.5704688880355047e-10 -1.8535888432633962e-03 0.0000000000000000e+00  0.0000000000000000e+00 0.0000000000000000e+00 0.0000000000000000e+00  0.0000000000000000e+00 0.0000000000000000e+00 0.0000000000000000e+00  -3.8597648983436253e-10 -2.6150637527927356e-03 0.0000000000000000e+00  -8.4715360088446145e-10 -2.6918686173347263e-03 0.0000000000000000e+00  0.0000000000000000e+00 0.0000000000000000e+00 0.0000000000000000e+00  8.9641418453632736e-09 -1.8019149664957866e-03 0.0000000000000000e+00  -1.5587477703310967e-08 -2.6087156246972507e-03 0.0000000000000000e+00  -1.1447911712897152e-09 -2.6922922281735939e-03 0.0000000000000000e+00  0.0000000000000000e+00 0.0000000000000000e+00 0.0000000000000000e+00  0.0000000000000000e+00 0.0000000000000000e+00 0.0000000000000000e+00  0.0000000000000000e+00 0.0000000000000000e+00 0.0000000000000000e+00  -1.3365943960799989e-09 -1.8408552864952825e-03 0.0000000000000000e+00  0.0000000000000000e+00 0.0000000000000000e+00 0.0000000000000000e+00  0.0000000000000000e+00 0.0000000000000000e+00 0.0000000000000000e+00  1.3960705700820902e-09 -2.5925351391783836e-03 0.0000000000000000e+00  2.9492745850934749e-09 -2.6872677385416555e-03 0.0000000000000000e+00  0.0000000000000000e+00 0.0000000000000000e+00 0.0000000000000000e+00  1.0327360130306923e-09 -1.7392618946799781e-03 0.0000000000000000e+00  0.0000000000000000e+00 0.0000000000000000e+00 0.0000000000000000e+00  0.0000000000000000e+00 0.0000000000000000e+00 0.0000000000000000e+00  6.8299845209217701e-10 -2.6052307888088577e-03 0.0000000000000000e+00  1.7958919430355052e-09 -2.6880199639201813e-03 0.0000000000000000e+00  0.0000000000000000e+00 0.0000000000000000e+00 0.0000000000000000e+00  1.3835628375389139e-09 -1.9037670888373812e-03 0.0000000000000000e+00  4.1720913625438005e-09 -2.6118759390123636e-03 0.0000000000000000e+00  2.0854229712509550e-09 -2.6989592353317627e-03 0.0000000000000000e+00  0.0000000000000000e+00 0.0000000000000000e+00 0.0000000000000000e+00  0.0000000000000000e+00 0.0000000000000000e+00 0.0000000000000000e+00  0.0000000000000000e+00 0.0000000000000000e+00 0.0000000000000000e+00  -1.1012086997480668e-09 -1.9035672661778752e-03 0.0000000000000000e+00  0.0000000000000000e+00 0.0000000000000000e+00 0.0000000000000000e+00  0.0000000000000000e+00 0.0000000000000000e+00 0.0000000000000000e+00  -4.5784633049191812e-10 -2.6115316771470674e-03 0.0000000000000000e+00  -6.7150714465124338e-10 -2.6976597016116180e-03 0.0000000000000000e+00  6.7190068099883359e-08 -2.5942525203204920e-03 0.0000000000000000e+00  8.4640506256583255e-09 -2.7328672333028362e-03 0.0000000000000000e+00  6.5143698925742935e-08 -1.8129602233591575e-03 0.0000000000000000e+00  0.0000000000000000e+00 0.0000000000000000e+00 0.0000000000000000e+00  1.3355492580692898e-07 -1.7541945573009284e-03 0.0000000000000000e+00  1.2192696469451572e-07 -2.6041200733913439e-03 0.0000000000000000e+00  1.7639632323938328e-07 -2.6815295226807491e-03 0.0000000000000000e+00  0.0000000000000000e+00 0.0000000000000000e+00 0.0000000000000000e+00  0.0000000000000000e+00 0.0000000000000000e+00 0.0000000000000000e+00  7.8784306907642281e-08 -2.7780211630461103e-03 0.0000000000000000e+00  4.3297498527627550e-08 -2.7862765091030677e-03 0.0000000000000000e+00  -1.1503230166206005e-08 -2.7730063617295705e-03 0.0000000000000000e+00  -2.0437533536485884e-08 -2.7735430129629040e-03 0.0000000000000000e+00  5.1346036726750411e-08 -2.7863679546951403e-03 0.0000000000000000e+00  2.0277516089459582e-07 -2.7844452353518140e-03 0.0000000000000000e+00  -3.8345868201549942e-09 -2.5658127722188672e-03 0.0000000000000000e+00  -5.9632760929944400e-09 -2.7428911960882397e-03 0.0000000000000000e+00  -5.3066278713317394e-09 -2.6455510882103499e-03 0.0000000000000000e+00  -2.6468240396535048e-09 -1.6762390323321300e-03 0.0000000000000000e+00  0.0000000000000000e+00 0.0000000000000000e+00 0.0000000000000000e+00  -8.5374649929757962e-10 -2.5613443089376998e-03 0.0000000000000000e+00  -1.9046843586288684e-09 -2.7445741955688173e-03 0.0000000000000000e+00  -4.3698104769020373e-09 -2.6279390469648367e-03 0.0000000000000000e+00  -2.4581813977118335e-09 -1.7011883924124640e-03 0.0000000000000000e+00  0.0000000000000000e+00 0.0000000000000000e+00 0.0000000000000000e+00  -4.5813695967215691e-09 -2.5616750742411890e-03 0.0000000000000000e+00  -4.9748595842710711e-09 -2.7444850785162461e-03 0.0000000000000000e+00  -2.8530592661162972e-09 -2.6290696938500255e-03 0.0000000000000000e+00  -2.5188969907027107e-09 -1.6995897771311852e-03 0.0000000000000000e+00  0.0000000000000000e+00 0.0000000000000000e+00 0.0000000000000000e+00  3.7544199622237374e-10 -2.5797876586081655e-03 0.0000000000000000e+00  5.0892139572961905e-10 -2.7454851868362372e-03 0.0000000000000000e+00  1.6655059876903193e-09 -2.6471798932396358e-03 0.0000000000000000e+00  1.1477585176797540e-09 -2.7739714901343954e-03 0.0000000000000000e+00  2.3105559829255412e-10 -1.6836687509446885e-03 0.0000000000000000e+00  0.0000000000000000e+00 0.0000000000000000e+00 0.0000000000000000e+00  3.8719599107533996e-09 -2.6802743027363471e-03 0.0000000000000000e+00  2.7475064816201368e-09 -2.7557092877413814e-03 0.0000000000000000e+00  2.2585939200357626e-09 -1.6746923775216769e-03 0.0000000000000000e+00  3.0231096910879968e-10 -2.7854062776740672e-03 0.0000000000000000e+00  -5.8025467637201239e-11 -2.7831068822413200e-03 0.0000000000000000e+00  8.4146339056143748e-10 -2.7861282214030969e-03 0.0000000000000000e+00  7.7545854556655788e-10 -2.7867894321073508e-03 0.0000000000000000e+00  2.0078341470493477e-09 -2.7816139524882992e-03 0.0000000000000000e+00  -5.3985710143131270e-09 -2.6418868262886000e-03 0.0000000000000000e+00  -6.2532814020617718e-09 -2.7517018284054446e-03 0.0000000000000000e+00  -5.3149847913795580e-09 -1.6618534092944118e-03 0.0000000000000000e+00  -2.8279495011745222e-09 -2.7667268050386895e-03 0.0000000000000000e+00  -8.2940251650062858e-09 -2.5192946103364507e-03 0.0000000000000000e+00  2.2063622012245661e-09 -2.7851018075940016e-03 0.0000000000000000e+00  1.2080994779445293e-09 -2.7865134108065381e-03 0.0000000000000000e+00  1.6988542141591321e-09 -2.7868498506102577e-03 0.0000000000000000e+00  2.5956152857847269e-07 -2.6320332638602468e-03 0.0000000000000000e+00  3.2331242868556710e-07 -2.7056594972612457e-03 0.0000000000000000e+00  1.2576089471768408e-07 -2.5513230979786745e-03 0.0000000000000000e+00  -2.8230623718797158e-09 -2.7732322970720653e-03 0.0000000000000000e+00  -3.8492377182786583e-09 -2.7704856120279934e-03 0.0000000000000000e+00  3.9501030276618069e-10 -2.7861078914066333e-03 0.0000000000000000e+00  5.3129085733187510e-10 -2.7744302195048904e-03 0.0000000000000000e+00  4.2299904456350328e-10 -2.7705018549279096e-03 0.0000000000000000e+00  1.1314465003458907e-09 -2.7862822167034548e-03 0.0000000000000000e+00  -2.5712634170677374e-09 -2.7733149865795692e-03 0.0000000000000000e+00  -3.3655345041821998e-09 -2.7713232071167626e-03 0.0000000000000000e+00  -2.3957842744368400e-09 -2.7861165606474876e-03 0.0000000000000000e+00  2.9743665332240700e-09 -2.6647164662241749e-03 0.0000000000000000e+00  1.6095308709490573e-09 -2.7706942551589042e-03 0.0000000000000000e+00  2.2695197320117306e-09 -2.7782473993959791e-03 0.0000000000000000e+00  -1.1460460230259969e-10 -2.7796272469670538e-03 0.0000000000000000e+00  3.3977718350467638e-09 -2.7778781461587940e-03 0.0000000000000000e+00  3.8214272539585759e-09 -2.7777883034907410e-03 0.0000000000000000e+00  4.4522116393118814e-09 -2.7707108222491087e-03 0.0000000000000000e+00  4.5417891874611778e-09 -2.7783216883987992e-03 0.0000000000000000e+00  4.0329455761185526e-09 -2.7796763187964983e-03 0.0000000000000000e+00  2.4374257855074402e-09 -2.6690752634130951e-03 0.0000000000000000e+00  1.6882410528753006e-09 -2.7732295556472143e-03 0.0000000000000000e+00  4.6246114018198158e-10 -2.7774428400622058e-03 0.0000000000000000e+00  2.7724431440473364e-10 -2.7720794928996072e-03 0.0000000000000000e+00  1.8898270377628610e-09 -2.7780897770385000e-03 0.0000000000000000e+00  -1.3839203844289269e-10 -2.7790264543003534e-03 0.0000000000000000e+00  -1.4166258821178702e-09 -2.6691188217702693e-03 0.0000000000000000e+00  -3.0196388809153143e-09 -2.7732652080364184e-03 0.0000000000000000e+00  -2.0360901948225341e-09 -2.7775067276516667e-03 0.0000000000000000e+00  -1.7021044143465772e-09 -2.7722667860894182e-03 0.0000000000000000e+00  -1.5231223740377391e-09 -2.7781170395179970e-03 0.0000000000000000e+00  -1.3441335542071038e-09 -2.7791955750108015e-03 0.0000000000000000e+00  4.4749480631378114e-09 -2.7731796281067608e-03 0.0000000000000000e+00  2.3140421097397327e-09 -2.7774719376811620e-03 0.0000000000000000e+00  3.4496792269775967e-09 -2.7719604931497246e-03 0.0000000000000000e+00  -5.2798696276850946e-10 -2.7731948743238526e-03 0.0000000000000000e+00  -7.6179895985157776e-10 -2.7774830791313723e-03 0.0000000000000000e+00  1.2579989979079588e-10 -2.7719748574572141e-03 0.0000000000000000e+00  2.3840514672917056e-09 -2.6709239411365380e-03 0.0000000000000000e+00  3.0982403341252836e-09 -2.7734356743128862e-03 0.0000000000000000e+00  3.0359173944972612e-09 -2.7775939312942709e-03 0.0000000000000000e+00  3.3728344549748466e-09 -2.7722660196391664e-03 0.0000000000000000e+00  2.9131356394466382e-09 -2.7782546860030564e-03 0.0000000000000000e+00  2.6893825057096924e-09 -2.7791373630076154e-03 0.0000000000000000e+00  2.6625074703348479e-09 -2.7733737053414684e-03 0.0000000000000000e+00  2.4909149240969193e-09 -2.7774405728668958e-03 0.0000000000000000e+00  2.0030506526088857e-09 -2.7715509788025982e-03 0.0000000000000000e+00  -2.1432473794175167e-09 -2.6707560265194752e-03 0.0000000000000000e+00  -1.8571970128889956e-09 -2.7729987913593414e-03 0.0000000000000000e+00  -1.6160486453751424e-09 -2.7773620803668202e-03 0.0000000000000000e+00  -1.1973060240797223e-09 -2.7678442680820030e-03 0.0000000000000000e+00  -2.4344369367321412e-09 -2.7782319464923354e-03 0.0000000000000000e+00  -1.6489770562945092e-09 -2.7790347700514680e-03 0.0000000000000000e+00  -3.3383048952808013e-09 -2.7733928414007433e-03 0.0000000000000000e+00  -2.6326086154893942e-09 -2.7774394205123351e-03 0.0000000000000000e+00  -3.0798619537248468e-09 -2.7719663559987594e-03 0.0000000000000000e+00  5.7380309651682241e-09 -2.6690490441899340e-03 0.0000000000000000e+00  8.8659761777973793e-09 -2.7731694887930172e-03 0.0000000000000000e+00  9.5281653816609351e-09 -2.7774373437796495e-03 0.0000000000000000e+00  1.0653358665471770e-08 -2.7719133127830664e-03 0.0000000000000000e+00  7.9644693223862520e-09 -2.7780871980763741e-03 0.0000000000000000e+00  7.8542022101491541e-09 -2.7790121535467170e-03 0.0000000000000000e+00  4.4293534004843065e-09 -2.6792327007317219e-03 0.0000000000000000e+00  3.6170519364289988e-09 -2.7616033824170568e-03 0.0000000000000000e+00  2.3024402511704815e-09 -2.7790498797428051e-03 0.0000000000000000e+00  1.2970739969958562e-09 -2.7737097722705536e-03 0.0000000000000000e+00  3.8912256793447805e-09 -2.7780554001454231e-03 0.0000000000000000e+00  2.2348913893617897e-09 -2.7795249185043201e-03 0.0000000000000000e+00  -4.4372036888545063e-09 -2.6690672098843540e-03 0.0000000000000000e+00  -5.6869053541698393e-09 -2.7731791581224112e-03 0.0000000000000000e+00  -3.7941744387002042e-09 -2.7774285667293724e-03 0.0000000000000000e+00  -4.