<?xml version="1.0"?>
<VTKFile type="UnstructuredGrid"  version="0.1"  >
<UnstructuredGrid>
<Piece  NumberOfPoints="2690" NumberOfCells="4864">
<Points>
<DataArray  type="Float64"  NumberOfComponents="3"  format="ascii">-5.105497649004217 22.02302794057542 0  -5.689972030234503 21.28572526943716 0  -5.103451395621593 21.52490952603156 0  -5.100941963321434 21.02311024922211 0  -5.692091820747161 21.78616035694515 0  -6.278586217008474 21.54558018140605 0  -9 21.99999999996945 0  -8.412282094371042 21.2673123821562 0  -9 21.49999999997139 0  -9 20.99999999997333 0  -8.412657494270281 21.76728585067965 0  -7.824964360202396 21.53451025599373 0  -9 32.9999999999446 0  -8.420461011405134 32.26723622923642 0  -9 32.49999999994358 0  -9 31.99999999994255 0  -8.420835478248403 32.76724389093356 0  -7.841317370758997 32.53443157378947 0  -5.159727672428072 33.02486210353199 0  -5.655909206126456 32.3209686946737 0  -5.1576073063082 32.52818216823981 0  -5.154878087306 32.02405761287798 0  -5.65811435218776 32.82161338856146 0  -6.156394982502174 32.61477956979709 0  -5.26564141506486 54.02364846435275 0  -5.831813572546499 54.76002970323121 0  -5.829713873604629 54.26102592484894 0  -6.393379528806243 54.49494663518466 0  -5.268179214343695 54.5254496004025 0  -5.270281158713606 55.0238384928322 0  -9 54.99999999998974 0  -8.505290499961886 54.30016579778943 0  -9 54.49999999998872 0  -9 53.99999999998769 0  -8.505627284023223 54.80006376501762 0  -8.010989285218679 54.60016117155444 0  -9 39.99999999995897 0  -8.426824734059037 40.74215558209841 0  -8.426449953613032 40.24216155288707 0  -7.853258913813283 40.48425201805195 0  -9 40.49999999996 0  -9 40.99999999996102 0  -5.199549407193006 41.02192463754955 0  -5.744441498057356 40.29146308739477 0  -5.197440127751795 40.52553332553266 0  -5.194942206766107 40.02472254920315 0  -5.746561054216937 40.79109176737131 0  -6.293547347813274 40.55620868140038 0  -9 55.99999999999179 0  -8.462002013209327 56.74762934618555 0  -8.461670335104905 56.24756425387717 0  -7.923687692957412 56.49512905334205 0  -9 56.49999999999282 0  -9 56.99999999999384 0  -5.275838278053221 56.02254252910749 0  -5.817322314637316 56.76597009881479 0  -5.815271354281222 56.26586961673015 0  -6.354217674175751 56.50633689860813 0  -5.278533226223812 56.52621219202255 0  -5.280631464823029 57.02392974994214 0  -7.519477272250768 43.01305081580758 0  -6.716444668401842 43.12856562855012 0  -7.294230557393495 43.35260536302198 0  -7.069172886197164 43.69217591238608 0  -6.941490290428238 42.78886603982922 0  -6.363179763179806 42.56469383437516 0  -6.708316718517411 49.0246940115839 0  -7.505250967478238 48.90778917293036 0  -6.931581271932669 48.68496828404903 0  -7.155079300181258 48.34516488047169 0  -7.281777949724305 49.24746834533423 0  -7.854875420470274 49.47041815465977 0  -6.69924786016583 46.02318628671779 0  -7.499338062056903 45.90680704850648 0  -6.923450038414123 45.68317851271657 0  -7.147864082957261 45.34329075791297 0  -7.274936309313132 46.24667508698756 0  -7.850293845071709 46.4700780335196 0  -6.58239796210327 7.023961311775532 0  -7.423138068943583 6.907426682490335 0  -6.818043540727356 6.684222010553877 0  -7.053902443056317 6.344487602511758 0  -7.187291866132488 7.247155837496318 0  -7.791857076046711 7.470335080529219 0  -7.494227063578887 30.01290521927293 0  -6.677482640836033 30.12823542908277 0  -7.265142522053623 30.35210131125653 0  -7.036255770503455 30.6912147529409 0  -6.906368751723318 29.78896109585871 0  -6.318172724327722 29.56514983921224 0  -6.573950091019349 4.022801551675835 0  -7.418067221696877 4.123049322216273 0  -6.812140933239061 4.358108446383469 0  -7.050170459865395 4.69334165708384 0  -7.180048804154518 3.787771472946466 0  -7.786430635241994 3.552888529883803 0  -6.591107441395592 10.02415728643562 0  -7.429215765903422 10.12395629550091 0  -6.827657914050534 10.35916316555528 0  -7.064035497803675 10.69417097957584 0  -7.192819631852228 9.78897389575811 0  -7.794875655942595 9.553759721926825 0  -6.599841983006843 13.02438378521464 0  -7.434496753258835 12.90776654496885 0  -6.833765156502314 12.68465248775179 0  -7.067900289120206 12.34492802233703 0  -7.200363926366523 13.24752475053593 0  -7.800569382793888 13.47060002498978 0  -6.60864789099894 16.02475559540135 0  -7.440259468723005 15.90787790813539 0  -6.841705929959121 15.68505270225013 0  -7.074983937467545 15.34528882981003 0  -7.207002593456986 16.24755245237264 0  -7.805011663731522 16.47048828188874 0  -6.617819801397484 19.0221787542724 0  -7.446670816557305 19.12240308069303 0  -6.851871139831896 19.35677897778923 0  -7.085701327834827 19.69152009317873 0  -7.212818865419862 18.78758788159983 0  -7.808189385719654 18.55293402404661 0  -6.641874865815447 27.02135317868819 0  -7.46236327632083 27.12188746438972 0  -6.873518193318937 27.35642369908545 0  -7.104975894665216 27.69152844345912 0  -7.230906397934312 26.78664957975223 0  -7.820266653087588 26.55214093498323 0  -8.285798467988162 19.10043371884095 0  -8.047079933875297 18.82664727916773 0  -8.403884859702769 18.27653181250135 0  -8.642644197434217 18.55031874243163 0  -9 17.99999999998495 0  -8.293018595942941 27.10017394338461 0  -8.056724009228031 26.82616048449607 0  -8.409932372069759 26.2760487935661 0  -8.646265333153549 26.55008247087606 0  -9 25.99999999995395 0  -8.282879808622393 15.91344446337825 0  -8.043861987001996 16.19197951312894 0  -8.402709060980451 16.73519245172524 0  -8.641686074437832 16.4566846223432 0  -9 16.99999999998883 0  -5.850059952595393 30.12211056326831 0  -6.084028414233642 29.8436071625537 0  -5.729454404127553 29.29957342258294 0  -5.495491910123385 29.57916713845577 0  -5.139614722670615 29.0230482199856 0  -8.280225315780109 12.9134332934211 0  -8.040315766879084 13.19201184976355 0  -8.400480286987969 13.73531009150508 0  -8.640352859984782 13.45672784444195 0  -9 13.99999999999401 0  -8.277773196978202 10.10116194434257 0  -8.036403281557224 9.827461717138622 0  -8.397239783970825 9.276876208508483 0  -8.638650201580164 9.550576441741001 0  -9 8.99999999999857 0  -8.272665101023847 4.100732484111925 0  -8.029618300919481 3.826829550391138 0  -8.393057587481255 3.276410921218885 0  -8.636125839234968 3.550318583803473 0  -9 2.999999999998668 0  -8.275006571513661 6.913263256515026 0  -8.033350588360037 7.191794620696369 0  -8.396123266364009 7.735174250029203 0  -8.637741093240821 7.456645664262438 0  -9 7.999999999999485 0  -8.310040619902995 45.91297754859936 0  -8.080084781318524 46.19150039797119 0  -8.425347184340914 46.7350820689703 0  -8.655263512109901 46.45656172753208 0  -9 46.99999999997333 0  -8.31276241791884 48.91339067657199 0  -8.08373158664679 49.19191795644758 0  -8.427648427190643 49.73515460106289 0  -8.656637015263009 49.45666114477266 0  -9 49.99999999997949 0  -5.902958457993546 43.12239584640272 0  -6.132979144819071 42.84354351991431 0  -5.784347835229981 42.29879843335554 0  -5.55434575145108 42.5788719840154 0  -5.204338038736389 42.02208790693471 0  -5.82062955926609 23.94480351138018 0  -6.063193915144117 24.21003929396376 0  -5.713007965312402 24.75456303510935 0  -6.305579818736625 24.47535449290528 0  -5.470608045840868 24.49041834012791 0  -5.120328350753591 25.02282961503255 0  -8.320211056099701 52.09013379565517 0  -8.086980922617503 51.82475284199158 0  -8.426568600835695 51.27978446910257 0  -7.853576571184401 51.55943785928578 0  -8.65984716875839 51.54516413337922 0  -9 50.99999999998153 0  -5.877982334699842 38.11185118439064 0  -6.114177144575007 37.84147423260341 0  -5.765514353752412 37.30209768528654 0  -6.350543493551782 37.57116138088238 0  -5.529324059537381 37.5738013423526 0  -5.179261741289317 37.02105535319178 0  -5.865067508414278 34.94458382429059 0  -6.104278558255629 35.20965292429783 0  -5.759053247625212 35.75388364073473 0  -6.343311701193215 35.47479548424073 0  -5.519991706115427 35.49007516492225 0  -5.174709626749693 36.0217144851567 0  -7.952711360322756 50.51090495842317 0  -7.90310470417637 51.0352011322561 0  -8.476535275864398 50.75539122620287 0  -6.244371183769173 36.52272924260651 0  -6.297482309258509 37.0468030218987 0  -5.712004079700395 36.77595155908767 0  -6.293804766403774 35.99860226743053 0  -5.709845579016893 36.27567022276313 0  -6.068836973089802 25.28497557406103 0  -6.187161823394185 24.88021075809565 0  -5.59485156707581 25.15812235571612 0  -8.057694249439578 25.75409803554362 0  -7.938920819081474 26.15311858259721 0  -8.528920862012003 25.87705297351438 0  -7.028224437814878 34.39271683861739 0  -6.685524317426602 34.93389518162219 0  -6.93245572443448 35.25617019022017 0  -7.275188386064445 34.71518725511172 0  -7.521942130540747 35.03761592377671 0  -7.18301550963787 52.64086860579777 0  -7.518037058525473 52.10027957916571 0  -7.276689400983559 51.77836269869537 0  -6.941692169205826 52.31902596064538 0  -6.700146801401025 51.9972483511221 0  -7.039121454663844 38.64075948399578 0  -6.695077268028791 38.10609505168539 0  -6.939242297150272 37.77930504219048 0  -7.283265044250967 38.31417844322511 0  -7.527616046390495 37.98754449778005 0  -7.000300354089942 23.39283974541357 0  -6.65270132119791 23.93418383517316 0  -6.903100885150766 24.2565653676304 0  -7.250736796979538 23.7153856105468 0  -7.500965962787037 24.03786670405772 0  -7.907131469236898 17.51080385195956 0  -7.85762270758691 18.03190382926836 0  -8.453740431940414 17.75533950581978 0  -7.856102997292973 16.99065865826716 0  -8.453391387751447 17.25543673547563 0  -7.895027418148326 8.511047400973089 0  -7.844921246529162 9.032405825717513 0  -8.44767717637353 8.755526050194355 0  -7.934626739098443 2.42519677771311 0  -7.860464185160252 2.989013733829943 0  -8.467466360826672 2.712630394104488 0  -7.843475177310651 7.990697277862423 0  -8.447345502631856 8.255515954565205 0  -7.903827239945494 49.99067527111902 0  -8.476174379906819 50.25548953008531 0  -6.177449370211567 41.61540804134876 0  -6.270376829147678 42.09015626905
[...]
<PointData  Vectors="f_27"> 
<DataArray  type="Float64"  Name="f_27"  NumberOfComponents="3" format="ascii">0.0000000000000000e+00 0.0000000000000000e+00 0.0000000000000000e+00  5.5370859702033180e-06 -5.8925707321890904e-03 0.0000000000000000e+00  0.0000000000000000e+00 0.0000000000000000e+00 0.0000000000000000e+00  0.0000000000000000e+00 0.0000000000000000e+00 0.0000000000000000e+00  7.3901932491560084e-07 -8.2620234195774044e-03 0.0000000000000000e+00  1.2291391340202219e-05 -8.4939697235902837e-03 0.0000000000000000e+00  0.0000000000000000e+00 0.0000000000000000e+00 0.0000000000000000e+00  2.6332415737235986e-05 -5.9975729789868521e-03 0.0000000000000000e+00  0.0000000000000000e+00 0.0000000000000000e+00 0.0000000000000000e+00  0.0000000000000000e+00 0.0000000000000000e+00 0.0000000000000000e+00  5.1585766687567520e-05 -8.2321491681018408e-03 0.0000000000000000e+00  4.0994077101667425e-05 -8.5260649003881771e-03 0.0000000000000000e+00  0.0000000000000000e+00 0.0000000000000000e+00 0.0000000000000000e+00  2.7082241408500418e-05 -5.8210783512013791e-03 0.0000000000000000e+00  0.0000000000000000e+00 0.0000000000000000e+00 0.0000000000000000e+00  0.0000000000000000e+00 0.0000000000000000e+00 0.0000000000000000e+00  5.2609375839481191e-05 -8.1521911147298363e-03 0.0000000000000000e+00  4.4295397816720451e-05 -8.4469173892138451e-03 0.0000000000000000e+00  0.0000000000000000e+00 0.0000000000000000e+00 0.0000000000000000e+00  1.1744322649018696e-05 -6.1225316590574489e-03 0.0000000000000000e+00  0.0000000000000000e+00 0.0000000000000000e+00 0.0000000000000000e+00  0.0000000000000000e+00 0.0000000000000000e+00 0.0000000000000000e+00  1.8387088894729084e-05 -8.1975917344352615e-03 0.0000000000000000e+00  2.5156880070663624e-05 -8.4767490941257875e-03 0.0000000000000000e+00  0.0000000000000000e+00 0.0000000000000000e+00 0.0000000000000000e+00  1.8983694942030473e-05 -5.9636492303911191e-03 0.0000000000000000e+00  4.0042221534437584e-05 -8.0010974102739229e-03 0.0000000000000000e+00  3.5581474104890868e-05 -8.2838537464981609e-03 0.0000000000000000e+00  0.0000000000000000e+00 0.0000000000000000e+00 0.0000000000000000e+00  0.0000000000000000e+00 0.0000000000000000e+00 0.0000000000000000e+00  0.0000000000000000e+00 0.0000000000000000e+00 0.0000000000000000e+00  2.6513815872920488e-05 -5.9538883817572630e-03 0.0000000000000000e+00  0.0000000000000000e+00 0.0000000000000000e+00 0.0000000000000000e+00  0.0000000000000000e+00 0.0000000000000000e+00 0.0000000000000000e+00  3.7726086437468468e-05 -8.0889758613510668e-03 0.0000000000000000e+00  3.7993230935871344e-05 -8.3133367877600509e-03 0.0000000000000000e+00  0.0000000000000000e+00 0.0000000000000000e+00 0.0000000000000000e+00  2.3653638877988814e-05 -5.7589191975617043e-03 0.0000000000000000e+00  2.1190029129363135e-05 -8.1052885935360766e-03 0.0000000000000000e+00  2.9580278853297290e-05 -8.3932393840857617e-03 0.0000000000000000e+00  0.0000000000000000e+00 0.0000000000000000e+00 0.0000000000000000e+00  0.0000000000000000e+00 0.0000000000000000e+00 0.0000000000000000e+00  0.0000000000000000e+00 0.0000000000000000e+00 0.0000000000000000e+00  1.7253761328792888e-05 -5.8608642619067154e-03 0.0000000000000000e+00  0.0000000000000000e+00 0.0000000000000000e+00 0.0000000000000000e+00  0.0000000000000000e+00 0.0000000000000000e+00 0.0000000000000000e+00  1.5413335350342005e-05 -8.2042686780778497e-03 0.0000000000000000e+00  2.3705713470433742e-05 -8.4122446629247196e-03 0.0000000000000000e+00  0.0000000000000000e+00 0.0000000000000000e+00 0.0000000000000000e+00  3.4839476209551626e-05 -6.1747217472132741e-03 0.0000000000000000e+00  2.8508839385918870e-05 -8.0301344163152127e-03 0.0000000000000000e+00  3.9293740980410715e-05 -8.2933750122063023e-03 0.0000000000000000e+00  0.0000000000000000e+00 0.0000000000000000e+00 0.0000000000000000e+00  0.0000000000000000e+00 0.0000000000000000e+00 0.0000000000000000e+00  0.0000000000000000e+00 0.0000000000000000e+00 0.0000000000000000e+00  1.7304964423865105e-05 -6.1819435301338852e-03 0.0000000000000000e+00  3.4774564466750328e-05 -8.0308116230211786e-03 0.0000000000000000e+00  2.9712716446934371e-05 -8.2896486139649485e-03 0.0000000000000000e+00  0.0000000000000000e+00 0.0000000000000000e+00 0.0000000000000000e+00  0.0000000000000000e+00 0.0000000000000000e+00 0.0000000000000000e+00  5.3103125752692950e-05 -8.6218316475360109e-03 0.0000000000000000e+00  5.9749014432877568e-05 -8.6296653054049547e-03 0.0000000000000000e+00  5.3011295504891015e-05 -8.6288392576737913e-03 0.0000000000000000e+00  5.0437652906873367e-05 -8.6280681336828539e-03 0.0000000000000000e+00  5.6348674095728371e-05 -8.6287620905530493e-03 0.0000000000000000e+00  5.4801713780524364e-05 -8.6015150438005211e-03 0.0000000000000000e+00  6.8527030012187847e-05 -8.5702864224128632e-03 0.0000000000000000e+00  6.3848700088500737e-05 -8.5702755808635608e-03 0.0000000000000000e+00  6.9221239483319724e-05 -8.5822133025592433e-03 0.0000000000000000e+00  6.7308658723825432e-05 -8.5804479024659645e-03 0.0000000000000000e+00  6.3246169183137305e-05 -8.5764664350086034e-03 0.0000000000000000e+00  5.6085283076382711e-05 -8.5437889575445056e-03 0.0000000000000000e+00  6.0329310748697470e-05 -8.5980352882835433e-03 0.0000000000000000e+00  5.2745696221044396e-05 -8.6019675764485142e-03 0.0000000000000000e+00  5.5066517718513762e-05 -8.6067195321763573e-03 0.0000000000000000e+00  4.8761329118515769e-05 -8.6107024422049806e-03 0.0000000000000000e+00  5.6819949672583973e-05 -8.5998257606787250e-03 0.0000000000000000e+00  5.1143840970106082e-05 -8.5629010190532446e-03 0.0000000000000000e+00  5.7266381073559329e-05 -8.8528007369423518e-03 0.0000000000000000e+00  5.1510721393977188e-05 -8.8603676657109109e-03 0.0000000000000000e+00  5.4711962022515271e-05 -8.8637788317479961e-03 0.0000000000000000e+00  5.4364753652050269e-05 -8.8668888177541438e-03 0.0000000000000000e+00  5.2549222219563722e-05 -8.8597711104766008e-03 0.0000000000000000e+00  4.6324998556377158e-05 -8.8276964472052601e-03 0.0000000000000000e+00  4.9571528807380633e-05 -8.7063955395814425e-03 0.0000000000000000e+00  5.9352966451875177e-05 -8.7004675558553304e-03 0.0000000000000000e+00  5.0478806323848436e-05 -8.7145690928858346e-03 0.0000000000000000e+00  4.8588083258231557e-05 -8.7069292439030284e-03 0.0000000000000000e+00  5.4847614836510865e-05 -8.7096644776522483e-03 0.0000000000000000e+00  5.5106582728656477e-05 -8.6760394954988589e-03 0.0000000000000000e+00  6.2327408081442473e-05 -8.8816013367930494e-03 0.0000000000000000e+00  5.6094578445716052e-05 -8.8763610287843544e-03 0.0000000000000000e+00  5.9047754697663981e-05 -8.8832932172592787e-03 0.0000000000000000e+00  5.6686535699066682e-05 -8.8798896056088011e-03 0.0000000000000000e+00  5.7495942623397724e-05 -8.8791640541863986e-03 0.0000000000000000e+00  5.5976473374159831e-05 -8.8456671160710640e-03 0.0000000000000000e+00  5.9793440792122836e-05 -8.8414819980855153e-03 0.0000000000000000e+00  5.5341041252652828e-05 -8.8413855060359078e-03 0.0000000000000000e+00  5.5711896539974431e-05 -8.8445943825938185e-03 0.0000000000000000e+00  5.4454249160579156e-05 -8.8419283587155770e-03 0.0000000000000000e+00  5.9134614760627265e-05 -8.8446572701630054e-03 0.0000000000000000e+00  6.0242444903723600e-05 -8.8104821368352754e-03 0.0000000000000000e+00  5.6106907126549205e-05 -8.8155891233742002e-03 0.0000000000000000e+00  5.1758262141004848e-05 -8.8240036060787830e-03 0.0000000000000000e+00  5.4126664798757056e-05 -8.8268796644672756e-03 0.0000000000000000e+00  5.4286893618216054e-05 -8.8301043432872043e-03 0.0000000000000000e+00  5.2071836154551844e-05 -8.8220944977863147e-03 0.0000000000000000e+00  4.7109585843832239e-05 -8.7878446670554555e-03 0.0000000000000000e+00  6.4477040174675245e-05 -8.7977745548612832e-03 0.0000000000000000e+00  5.9601009801919612e-05 -8.7972686249704196e-03 0.0000000000000000e+00  6.4885538141944024e-05 -8.8087897690657044e-03 0.0000000000000000e+00  6.2731833198189540e-05 -8.8063203212353208e-03 0.0000000000000000e+00  5.8994390984330630e-05 -8.8046041577513699e-03 0.0000000000000000e+00  5.1967534323858751e-05 -8.7721143507018384e-03 0.0000000000000000e+00  7.1293867610138271e-05 -8.7714528431347832e-03 0.0000000000000000e+00  5.7528251821782131e-05 -8.7764276959920590e-03 0.0000000000000000e+00  6.5203300002886376e-05 -8.7844051835137046e-03 0.0000000000000000e+00  5.4706683139667625e-05 -8.7772738424013921e-03 0.0000000000000000e+00  6.4180136671768411e-05 -8.7854307001933966e-03 0.0000000000000000e+00  6.2168080466143262e-05 -8.7548561086011837e-03 0.0000000000000000e+00  6.8318343441514708e-05 -8.7272120488006179e-03 0.0000000000000000e+00  5.7578223925194376e-05 -8.7331451554643821e-03 0.0000000000000000e+00  6.4098215614823734e-05 -8.7354099171522911e-03 0.0000000000000000e+00  5.5922387205237123e-05 -8.7299923920343796e-03 0.0000000000000000e+00  5.9516595124286688e-05 -8.7343922241278852e-03 0.0000000000000000e+00  5.5600740867417602e-05 -8.7049534356465584e-03 0.0000000000000000e+00  4.3668351189810430e-05 -8.2331386584873142e-03 0.0000000000000000e+00  5.5083736653902192e-05 -8.7027651573201529e-03 0.0000000000000000e+00  6.0849795051395595e-05 -8.3329332999529295e-03 0.0000000000000000e+00  3.8918093730513093e-05 -5.9198678027259236e-03 0.0000000000000000e+00  0.0000000000000000e+00 0.0000000000000000e+00 0.0000000000000000e+00  4.4692035641427403e-05 -8.1806331247800852e-03 0.0000000000000000e+00  5.0459705008253849e-05 -8.6464351246400249e-03 0.0000000000000000e+00  5.1512721234944086e-05 -8.2799757702568932e-03 0.0000000000000000e+00  3.4720960881819180e-05 -5.8587982099369117e-03 0.0000000000000000e+00  0.0000000000000000e+00 0.0000000000000000e+00 0.0000000000000000e+00  4.8429947099157584e-05 -8.2572521722653613e-03 0.0000000000000000e+00  4.6188636045743166e-05 -8.7143498547048968e-03 0.0000000000000000e+00  3.8434482261618997e-05 -8.3941399385798407e-03 0.0000000000000000e+00  2.3666962353813568e-05 -5.8722445563218354e-03 0.0000000000000000e+00  0.0000000000000000e+00 0.0000000000000000e+00 0.0000000000000000e+00  5.8371839875424078e-05 -8.1548523024383059e-03 0.0000000000000000e+00  8.2959717781351449e-05 -8.6148218388271882e-03 0.0000000000000000e+00  3.9151052441023243e-05 -8.2902715426410763e-03 0.0000000000000000e+00  2.7914144386917137e-05 -5.8742203794706878e-03 0.0000000000000000e+00  0.0000000000000000e+00 0.0000000000000000e+00 0.0000000000000000e+00  4.6808887782131002e-05 -8.2698507437569020e-03 0.0000000000000000e+00  4.4944832238786284e-05 -8.7316606396433821e-03 0.0000000000000000e+00  3.8414569269521918e-05 -8.3615648252078918e-03 0.0000000000000000e+00  2.8034627598433803e-05 -5.9433901045224434e-03 0.0000000000000000e+00  0.0000000000000000e+00 0.0000000000000000e+00 0.0000000000000000e+00  4.8590031403690345e-05 -8.2864715522492083e-03 0.0000000000000000e+00  5.6058467239399221e-05 -8.7532466633589625e-03 0.0000000000000000e+00  6.1003704506787027e-05 -8.3808319170618154e-03 0.0000000000000000e+00  4.0809625418299013e-05 -5.9706380380188211e-03 0.0000000000000000e+00  0.0000000000000000e+00 0.0000000000000000e+00 0.0000000000000000e+00  4.8317293419560830e-05 -8.3287510703952336e-03 0.0000000000000000e+00  5.3672428428094105e-05 -8.7818812960678058e-03 0.0000000000000000e+00  5.7093819462291308e-05 -8.4634201520272373e-03 0.0000000000000000e+00  4.1881882140564102e-05 -5.9464483807230850e-03 0.0000000000000000e+00  0.0000000000000000e+00 0.0000000000000000e+00 0.0000000000000000e+00  4.2690715336316880e-05 -8.3162020474053279e-03 0.0000000000000000e+00  4.0840197974210154e-05 -8.7673035667005846e-03 0.0000000000000000e+00  3.4526944206418741e-05 -8.4436730637729926e-03 0.0000000000000000e+00  2.0924245353360850e-05 -5.9268918536629772e-03 0.0000000000000000e+00  0.0000000000000000e+00 0.0000000000000000e+00 0.0000000000000000e+00  4.8527818463396983e-05 -8.0372334924005921e-03 0.0000000000000000e+00  4.7893762224174196e-05 -8.5030836397944117e-03 0.0000000000000000e+00  4.2233825455401894e-05 -8.1434659038996764e-03 0.0000000000000000e+00  2.9527500574722973e-05 -5.7183359358295247e-03 0.0000000000000000e+00  0.0000000000000000e+00 0.0000000000000000e+00 0.0000000000000000e+00  5.1798573377648923e-05 -8.0245682001015926e-03 0.0000000000000000e+00  5.0362481749590208e-05 -8.4839911244005001e-03 0.0000000000000000e+00  4.2879335195086620e-05 -8.1724326944742041e-03 0.0000000000000000e+00  2.6744572270057910e-05 -5.6484112656885977e-03 0.0000000000000000e+00  0.0000000000000000e+00 0.0000000000000000e+00 0.0000000000000000e+00  5.7546685627370871e-05 -8.0765483640476820e-03 0.0000000000000000e+00  8.2614407629328450e-05 -8.5392832996009447e-03 0.0000000000000000e+00  3.4468388033343070e-05 -8.2159533126122172e-03 0.0000000000000000e+00  2.7317962327885686e-05 -5.7954659930338180e-03 0.0000000000000000e+00  0.0000000000000000e+00 0.0000000000000000e+00 0.0000000000000000e+00  6.3194528314617415e-05 -8.2323733625355496e-03 0.0000000000000000e+00  8.4316838950291301e-05 -8.6731737644128570e-03 0.0000000000000000e+00  4.9462301889860741e-05 -8.2598615637814472e-03 0.0000000000000000e+00  6.0412995022903051e-05 -8.7198121295719421e-03 0.0000000000000000e+00  3.6325915612689348e-05 -5.8498782095275509e-03 0.0000000000000000e+00  0.0000000000000000e+00 0.0000000000000000e+00 0.0000000000000000e+00  4.8975169971407159e-05 -8.0336170252202910e-03 0.0000000000000000e+00  5.7926200201761040e-05 -8.4733332843644205e-03 0.0000000000000000e+00  6.1906388742672370e-05 -8.1093340835601269e-03 0.0000000000000000e+00  6.1587967592286776e-05 -8.5202309636688341e-03 0.0000000000000000e+00  3.9442137435085888e-05 -5.7121717093821731e-03 0.0000000000000000e+00  0.0000000000000000e+00 0.0000000000000000e+00 0.0000000000000000e+00  6.1796681010601687e-05 -8.1431931681262542e-03 0.0000000000000000e+00  7.8750270404970296e-05 -8.5685099603480495e-03 0.0000000000000000e+00  2.7131712118703471e-05 -8.2432420372274533e-03 0.0000000000000000e+00  5.1919384037852411e-05 -8.6202445318173636e-03 0.0000000000000000e+00  2.8619576441009880e-05 -5.8553192800815971e-03 0.0000000000000000e+00  0.0000000000000000e+00 0.0000000000000000e+00 0.0000000000000000e+00  7.0359510152528059e-05 -8.1668646679102300e-03 0.0000000000000000e+00  9.2917609310397931e-05 -8.5923228327188916e-03 0.0000000000000000e+00  5.2796409663624313e-05 -8.2464461559080496e-03 0.0000000000000000e+00  6.4770652041580497e-05 -8.6464863961587639e-03 0.0000000000000000e+00  4.2549414333992323e-05 -5.7118012472747509e-03 0.0000000000000000e+00  0.0000000000000000e+00 0.0000000000000000e+00 0.0000000000000000e+00  5.5270973270709757e-05 -8.2010061254317347e-03 0.0000000000000000e+00  6.2452063408354919e-05 -8.5251292218146285e-03 0.0000000000000000e+00  6.3544954889152518e-05 -7.8955701929569050e-03 0.0000000000000000e+00  1.2215965874487505e-05 -8.3036840985497417e-03 0.0000000000000000e+00  3.3662711426657945e-05 -8.6251856528925443e-03 0.0000000000000000e+00  -2.3200023359003176e-05 -8.0040140391527698e-03 0.0000000000000000e+00  4.8415509986929128e-05 -8.5983549731513832e-03 0.0000000000000000e+00  -1.5883996352568209e-05 -5.5291535752409245e-03 0.0000000000000000e+00  2.1944649218261692e-05 -8.4703547294718694e-03 0.0000000000000000e+00  4.6394202864517865e-05 -8.7125490800573011e-03 0.0000000000000000e+00  1.5593310958317178e-06 -8.1345558172207511e-03 0.0000000000000000e+00  4.8418457371366837e-05 -8.4311383308359727e-03 0.0000000000000000e+00  5.1788545026797097e-05 -8.6999086678552929e-03 0.0000000000000000e+00  5.1609623459678876e-05 -8.1159974958355773e-03 0.0000000000000000e+00  5.9130378390055696e-05 -8.6840589804605579e-03 0.0000000000000000e+00  6.9835702643246278e-05 -8.6730247698541749e-03 0.0000000000000000e+00  6.0369578406012387e-05 -8.6830175984683004e-03 0.0000000000000000e+00  6.0223002146553107e-05 -8.6843796098421862e-03 0.0000000000000000e+00  5.4819038280710427e-05 -8.6744486455434949e-03 0.0000000000000000e+00  6.0663582118056874e-05 -8.5392167823082100e-03 0.0000000000000000e+00  5.6092494373491876e-05 -8.5340594978101057e-03 0.0000000000000000e+00  6.2191794059198089e-05 -8.5512390387946953e-03 0.0000000000000000e+00  6.4336174427334002e-05 -8.5482077076704903e-03 0.0000000000000000e+00  6.3704112482409995e-05 -8.5361261557215292e-03 0.0000000000000000e+00  5.4489281801978623e-05 -8.6542075338402573e-03 0.0000000000000000e+00  6.5232127400227413e-05 -8.6437624331478953e-03 0.0000000000000000e+00  5.3903307684468861e-05 -8.6554351265680889e-03 0.0000000000000000e+00  5.4663717186593508e-05 -8.6580498448963743e-03 0.0000000000000000e+00  4.8773490735900526e-05 -8.6521761441160881e-03 0.0000000000000000e+00  5.4538467903141192e-05 -8.7576263281909164e-03 0.0000000000000000e+00  6.4613790333829671e-05 -8.7496021388861374e-03 0.0000000000000000e+00  5.5870229674371337e-05 -8.7571073589847413e-03 0.0000000000000000e+00  5.5628807621549982e-05 -8.7573655198243585e-03 0.0000000000000000e+00  4.9631265330626576e-05 -8.7434924420514652e-03 0.0000000000000000e+00  5.3112447633118725e-05 -8.4311436713180796e-03 0.0000000000000000e+00  6.1628014924283977e-05 -8.7571872741709928e-03 0.0000000000000000e+00  6.3300137567142567e-05 -8.1282077145374519e-03 0.0000000000000000e+00  4.7546126733786390e-05 -8.7289293772866688e-03 0.0000000000000000e+00  3.0200663991763040e-05 -5.6352032096943245e-03 0.0000000000000000e+00  5.0901191453385202e-05 -8.4849014528070969e-03 0.0000000000000000e+00  5.9722917744684334e-05 -8.8099094136306188e-03 0.0000000000000000e+00  6.2754409697803978e-05 -8.1787384589134642e-03 0.0000000000000000e+00  4.9451086544158760e-05 -8.5712590461533948e-03 0.0000000000000000e+00  5.3670552669981482e-05 -8.8099091426929246e-03 0.0000000000000000e+00  3.2986217761589453e-05 -5.7602410528179394e-03 0.0000000000000000e+00  4.3616005101522710e-05 -8.7823988569491925e-03 0.0000000000000000e+00  2.8847352165520466e-05 -5.6813566637519278e-03 0.0000000000000000e+00  5.1176941164347533e-05 -8.4981699329716928e-03 0.0000000000000000e+00  3.2200815379709745e-05 -5.4381705878383110e-03 0.0000000000000000e+00  9.5793055270807326e-06 -8.3232878702484865e-03 0.0000000000000000e+00  4.1173572881026587e-05 -8.6061663357150826e-03 0.0000000000000000e+00  -1.2178056769268312e-05 -7.9873258556065543e-03 0.0000000000000000e+00  4.8363916756133894e-05 -8.7526696666837857e-03 0.0000000000000000e+00  5.2443544226785584e-05 -8.7582707919668518e-03 0.0000000000000000e+00  5.0665047296787123e-05 -8.7554423516854156e-03 0.0000000000000000e+00  6.2187164332175383e-05 -8.5584252894834803e-03 0.0000000000000000e+00  6.2886296979192520e-05 -8.5611786046236281e-03 0.0000000000000000e+00  6.1864951155602186e-05 -8.5556113352380867e-03 0.0000000000000000e+00  4.6283026071502464e-05 -8.6605874698448149e-03 0.0000000000000000e+00  4.6714526307370014e-05 -8.6596807074285700e-03 0.0000000000000000e+00  4.9607133542397505e-05 -8.6610764404211147e-03 0.0000000000000000e+00  5.2295866533095353e-05 -8.6797328219594180e-03 0.0000000000000000e+00  5.5502219950530660e-05 -8.6817198070849571e-03 0.0000000000000000e+00  5.5495052958540090e-05 -8.6820433507820670e-03 0.0000000000000000e+00  1.4564994103540278e-05 -8.4161943612196134e-03 0.0000000000000000e+00  4.2042185677588527e-05 -8.6779364968472463e-03 0.0000000000000000e+00  -1.4742865925466858e-05 -8.0837978629316343e-03 0.0000000000000000e+00  5.3758702099333285e-05 -8.5976083572331802e-03 0.0000000000000000e+00  6.4936209007257183e-05 -8.5917080671298399e-03 0.0000000000000000e+00  5.5296016439470262e-05 -8.6319449283288399e-03 0.0000000000000000e+00  6.2809861061202877e-05 -8.3524972366556312e-03 0.0000000000000000e+00  5.9500482062756544e-05 -8.5285061011289402e-03 0.0000000000000000e+00  6.5323820033831784e-05 -8.5712151903843126e-03 0.0000000000000000e+00  5.0069380712332737e-05 -8.5733369434401203e-03 0.0000000000000000e+00  5.1194053577560396e-05 -8.5576484276823229e-03 0.0000000000000000e+00  5.0342542350128214e-05 -8.6037210711373477e-03 0.0000