<?xml version="1.0"?>
<VTKFile type="UnstructuredGrid"  version="0.1"  >
<UnstructuredGrid>
<Piece  NumberOfPoints="2690" NumberOfCells="4864">
<Points>
<DataArray  type="Float64"  NumberOfComponents="3"  format="ascii">-5.076515767321601 22.01672989632074 0  -5.666093517681679 21.27938175645663 0  -5.075012106249179 21.51809806236388 0  -5.073219585216476 21.01680607129477 0  -5.667611982462408 21.77969104900147 0  -6.258689332334349 21.5399545281615 0  -9 21.99999999996945 0  -8.408047788649403 21.26599605479095 0  -9 21.49999999997139 0  -9 20.99999999997333 0  -8.408317178905433 21.76597661630277 0  -7.816381611991607 21.53190909050723 0  -9 32.9999999999446 0  -8.413936716152108 32.26594127479908 0  -9 32.49999999994358 0  -9 31.99999999994255 0  -8.414205739467917 32.7659465273661 0  -7.828157029202085 32.5318528967251 0  -5.115579848995448 33.01807754940831 0  -5.618239913392755 32.31424730197477 0  -5.114013592522524 32.52048284618779 0  -5.112094934860189 32.01749116512849 0  -5.619813171748531 32.81471230074016 0  -6.124025455232537 32.60875087793238 0  -5.191439820406892 54.01721739769773 0  -5.767878205000397 54.75391565573354 0  -5.766378006644056 54.25463697216995 0  -6.341071595578072 54.48952853889734 0  -5.193214432072414 54.51850697838807 0  -5.194758936300606 55.01738976519388 0  -9 54.99999999998974 0  -8.49541169345202 54.29906296531979 0  -9 54.49999999998872 0  -9 53.99999999998769 0  -8.495650195309516 54.79899034168135 0  -7.991111644171339 54.59800429386769 0  -9 39.99999999995897 0  -8.418506779243215 40.74088524623431 0  -8.418237640321783 40.24088917625225 0  -7.836732593883507 40.48172773193907 0  -9 40.49999999996 0  -9 40.99999999996102 0  -5.144185431547163 41.01597642236491 0  -5.697796810703555 40.28502662437348 0  -5.14263122471718 40.5185799207386 0  -5.140865128634386 40.01799561043952 0  -5.69931695382122 40.78475592327899 0  -6.254479967400608 40.55060438341213 0  -9 55.99999999999179 0  -8.450724227070648 56.74645911811017 0  -8.450488739104324 56.24641310055669 0  -7.901223953806062 56.49282572474848 0  -9 56.49999999999282 0  -9 56.99999999999384 0  -5.198698431129706 56.01643318583709 0  -5.750428805774963 56.7598250313735 0  -5.748953580421938 56.2597539799641 0  -6.298910380025045 56.50099393454354 0  -5.200582954476853 56.51906113978759 0  -5.202123153072261 57.0174453968982 0  -7.496693285318787 43.00947660544479 0  -6.68118765642476 43.1229761687303 0  -7.267761416631528 43.34842250011315 0  -7.038967818823568 43.68738100779241 0  -6.909977177394199 42.78392605700778 0  -6.323022251569951 42.5583819613977 0  -6.667780159362664 49.01790718035661 0  -7.478879741058083 48.90340099870339 0  -6.895294813754436 48.67883557209709 0  -7.122970375392078 48.33970919500972 0  -7.251219354593699 49.24243763734842 0  -7.834400607168834 49.46709607665221 0  -6.661252556861355 46.01681666095388 0  -7.474624574156501 45.90269436108837 0  -6.889432564874545 45.67754570222634 0  -7.117762632546106 45.33836158659381 0  -7.246304083443282 46.2418652907429 0  -7.831113695629451 46.46685114470934 0  -6.577051143054939 7.017398422500866 0  -7.419714854485006 6.90315554017885 0  -6.813476338851561 6.678317425709831 0  -7.05005243116389 6.339240288707068 0  -7.183148495253864 7.242229593321238 0  -7.789005638058067 7.467048679537837 0  -7.478552944454967 30.00936984297853 0  -6.653197750788319 30.12273717733616 0  -7.24686057873378 30.34805764461254 0  -7.015311078278006 30.68668664691379 0  -6.884749495754163 29.78399317593399 0  -6.290699785740558 29.5587108463957 0  -6.570885423934366 4.016561269436533 0  -7.416013920635379 4.118976750455744 0  -6.80916864173234 4.352424110515654 0  -7.047328894118146 4.688232738274879 0  -7.177862012986686 3.7831348041803 0  -7.785045543319463 3.549816419401139 0  -6.583378206282154 10.01754540420898 0  -7.424131482747613 10.11963487702089 0  -6.820462255326694 10.35318912565971 0  -7.057416814786069 10.68883381522979 0  -7.187164889540879 9.784007797131769 0  -7.791199127672519 9.550448937561887 0  -6.589722571152107 13.01770382867469 0  -7.427968288650384 12.90340138547992 0  -6.824898442380221 12.6786285989685 0  -7.060224246459557 12.33955867919981 0  -7.192646231390291 13.24249650936384 0  -7.795336356672448 13.46724035604415 0  -6.596107885713604 16.01797457546823 0  -7.432142492243868 15.90348143000982 0  -6.83065658238048 15.67891949086344 0  -7.06535954149758 15.33982051105609 0  -7.197452882763344 16.24251565103901 0  -7.798549341394419 16.46715794444767 0  -6.602681901401091 19.01609949557092 0  -7.436738616899658 19.11850311149912 0  -6.837937614920965 19.35145216630492 0  -7.07303823125943 19.68690674270228 0  -7.201624219628744 18.78299581665129 0  -7.800828537090458 18.54984587980565 0  -6.61999732819129 27.01549854877006 0  -7.448033097773345 27.11812719674371 0  -6.853530336054486 27.35119173882263 0  -7.086926593737779 27.68690943173288 0  -7.214634393136527 26.78231361611481 0  -7.809511767904744 26.54926986429025 0  -8.281237340038198 19.09864361961798 0  -8.041094299040383 18.82421820214413 0  -8.400264433620514 18.27496988345575 0  -8.640436715494266 18.54939550956987 0  -9 17.99999999998495 0  -8.286432893970899 27.09845437107231 0  -8.048031293361637 26.82386427326521 0  -8.4046106669467 26.27461935210559 0  -8.643040244077872 26.54922397461169 0  -9 25.99999999995395 0  -8.279144421327102 15.91143202202393 0  -8.038786699057727 16.18930452302232 0  -8.399421093720727 16.73354120912863 0  -8.63974958115751 16.45568855743621 0  -9 16.99999999998883 0  -5.817099445655155 30.11437777551829 0  -6.05383592921009 29.83652561974394 0  -5.696269769040127 29.29167885666631 0  -5.459520516695303 29.57032105557647 0  -5.101145156264178 29.01672129300869 0  -8.277222692870605 12.91142462000147 0  -8.036220481935475 13.18932898091831 0  -8.397810629322864 13.73362749340541 0  -8.63878556278244 13.45572043892227 0  -9 13.99999999999401 0  -8.275440985824046 10.09917404930981 0  -8.033377635872705 9.824812164882029 0  -8.395455997466239 9.275221759921006 0  -8.637548370985314 9.549583707123581 0  -9 8.99999999999857 0  -8.271721312483395 4.098862488456812 0  -8.028435315016878 3.824353361337085 0  -8.392407595567118 3.274883944449058 0  -8.635708942329657 3.549396553347557 0  -9 2.999999999998668 0  -8.273430182126919 6.911301608977394 0  -8.031159143131934 7.189171829678846 0  -8.394644628828834 7.733529275402748 0  -8.636887689300631 7.455661005216499 0  -9 7.999999999999485 0  -8.298675800487425 45.91108905594712 0  -8.064835210790879 46.1889504100556 0  -8.415701915556728 46.73345645045121 0  -8.64951379378166 46.45559685605414 0  -9 46.99999999997333 0  -8.300633637611963 48.91138552069608 0  -8.067455098849798 49.18925042592387 0  -8.417350550017563 49.73350857645045 0  -8.650499156734385 49.45566816830604 0  -9 49.99999999997949 0  -5.855092527335153 43.11458384766951 0  -6.088992359374128 42.83647895545825 0  -5.735686966893859 42.29111813915399 0  -5.501781396458216 42.570106631768 0  -5.147626607196568 42.01603338189479 0  -5.794567646303811 23.93699470206527 0  -6.03884227393857 24.2029192686491 0  -5.685097204323077 24.74672270148725 0  -6.282989308935216 24.46890029286875 0  -5.440924772892783 24.48159109843502 0  -5.087259200539163 25.01660939847869 0  -8.307293799111248 52.08836317874494 0  -8.069738539365952 51.82233545961213 0  -8.415874647379727 51.27822456484934 0  -7.832060050698169 51.55635532765989 0  -8.653464388461192 51.54425130964821 0  -9 50.99999999998153 0  -5.835828183801446 38.10412476532306 0  -6.075519192284256 37.83446919683753 0  -5.722869951284514 37.29440465415741 0  -6.315334618131356 37.56486618084884 0  -5.483163665584039 37.56501768369382 0  -5.129646180609152 37.01528731452194 0  -5.826558399107701 34.93683440330918 0  -6.068415231356576 35.20263855212266 0  -5.718237129622073 35.74623131747978 0  -6.310144846026455 35.46849599705755 0  -5.476471421588933 35.48134054263037 0  -5.126400148271493 36.01582922347504 0  -7.933526699996366 50.50795744255937 0  -7.882766211010184 51.0321777369598 0  -8.46689098548009 50.75393442773341 0  -6.208879354823863 36.51651601337569 0  -6.262125533144639 37.04058739003489 0  -5.66935470099431 36.76885997604738 0  -6.259487775075359 35.9923939370674 0  -5.667816504291303 36.26866687125679 0  -6.043433133012291 25.2781289723295 0  -6.163175862441268 24.87354952798259 0  -5.565484176057501 25.15042827109426 0  -8.049371445623114 25.7518283113586 0  -7.929398477282097 26.15054848000905 0  -8.524739322028989 25.87591696025591 0  -7.004431890351161 34.38810822643123 0  -6.657112949324174 34.92839983971612 0  -6.906820253293429 35.25130044202309 0  -7.254161416811899 34.71114859461029 0  -7.503740199702561 35.03415899241709 0  -7.148051358320412 52.63627471022227 0  -7.489873681591071 52.09640542695198 0  -7.244185743945806 51.77376477052668 0  -6.902381209176443 52.31368637715518 0  -6.656554498422326 51.99114581531082 0  -7.01225622480892 38.63619660325024 0  -6.663970974297461 38.10062833419925 0  -6.911692062794776 37.77445355882102 0  -7.25996035738304 38.31017078845198 0  -7.507813849594672 37.9841079621176 0  -6.984328274173671 23.38819741789849 0  -6.633486228790332 23.92860934830905 0  -6.885693767105844 24.25158640219142 0  -7.236560374178657 23.71129249054869 0  -7.488643362809675 24.03434058721508 0  -7.900807894966102 17.50784293494624 0  -7.850791995087504 18.02886956019471 0  -8.450529236579959 17.75387599010682 0  -7.849701576517565 16.98750958705092 0  -8.450278853650193 17.2539467170499 0  -7.892036632342447 8.508022552791662 0  -7.841595500904534 9.029237356648288 0  -8.446137622881231 8.754013029861046 0  -7.933721802623221 2.422567631473733 0  -7.859335864124643 2.986170914594336 0  -8.466973203784946 2.711307223625814 0  -7.840544751426396 7.987540001922242 0  -8.445896604607928 8.254005640897649 0  -7.883987937689009 49.9875366978378 0  -8.466634688601776 50.2540051299498 0  -6.135527898661068 41.60931539491445 0  -6.229317341503729 42.083922791189
[...]
<PointData  Vectors="f_27"> 
<DataArray  type="Float64"  Name="f_27"  NumberOfComponents="3" format="ascii">0.0000000000000000e+00 0.0000000000000000e+00 0.0000000000000000e+00  8.5716722076047139e-06 -1.1873700456477327e-02 0.0000000000000000e+00  0.0000000000000000e+00 0.0000000000000000e+00 0.0000000000000000e+00  0.0000000000000000e+00 0.0000000000000000e+00 0.0000000000000000e+00  -5.7546591010348020e-06 -1.6645931529741420e-02 0.0000000000000000e+00  1.6295341286274339e-05 -1.7121541080708309e-02 0.0000000000000000e+00  0.0000000000000000e+00 0.0000000000000000e+00 0.0000000000000000e+00  3.9750254956030643e-05 -1.2087996650684656e-02 0.0000000000000000e+00  0.0000000000000000e+00 0.0000000000000000e+00 0.0000000000000000e+00  0.0000000000000000e+00 0.0000000000000000e+00 0.0000000000000000e+00  8.5143463771861796e-05 -1.6597190149106451e-02 0.0000000000000000e+00  6.4586858387689103e-05 -1.7189475779290076e-02 0.0000000000000000e+00  0.0000000000000000e+00 0.0000000000000000e+00 0.0000000000000000e+00  4.0063381730996523e-05 -1.1771066008444563e-02 0.0000000000000000e+00  0.0000000000000000e+00 0.0000000000000000e+00 0.0000000000000000e+00  0.0000000000000000e+00 0.0000000000000000e+00 0.0000000000000000e+00  8.5575869425942569e-05 -1.6481433428582475e-02 0.0000000000000000e+00  6.8184056760920450e-05 -1.7075234096422490e-02 0.0000000000000000e+00  0.0000000000000000e+00 0.0000000000000000e+00 0.0000000000000000e+00  1.6256666381456663e-05 -1.2372611057802472e-02 0.0000000000000000e+00  0.0000000000000000e+00 0.0000000000000000e+00 0.0000000000000000e+00  0.0000000000000000e+00 0.0000000000000000e+00 0.0000000000000000e+00  2.1472041131158447e-05 -1.6562889629476753e-02 0.0000000000000000e+00  3.4628830175848375e-05 -1.7128758370038629e-02 0.0000000000000000e+00  0.0000000000000000e+00 0.0000000000000000e+00 0.0000000000000000e+00  2.9135469592436393e-05 -1.2142558762414175e-02 0.0000000000000000e+00  6.9215356543303027e-05 -1.6283678783352951e-02 0.0000000000000000e+00  5.5879785346381417e-05 -1.6853026941468625e-02 0.0000000000000000e+00  0.0000000000000000e+00 0.0000000000000000e+00 0.0000000000000000e+00  0.0000000000000000e+00 0.0000000000000000e+00 0.0000000000000000e+00  0.0000000000000000e+00 0.0000000000000000e+00 0.0000000000000000e+00  3.7196179183765997e-05 -1.2121759083213906e-02 0.0000000000000000e+00  0.0000000000000000e+00 0.0000000000000000e+00 0.0000000000000000e+00  0.0000000000000000e+00 0.0000000000000000e+00 0.0000000000000000e+00  5.5151559965485257e-05 -1.6451898099252599e-02 0.0000000000000000e+00  5.4832356433942406e-05 -1.6905565238704005e-02 0.0000000000000000e+00  0.0000000000000000e+00 0.0000000000000000e+00 0.0000000000000000e+00  3.3341908700989182e-05 -1.1675060540178051e-02 0.0000000000000000e+00  2.1367706990487770e-05 -1.6416643992601000e-02 0.0000000000000000e+00  3.8610159328108911e-05 -1.6998519650237184e-02 0.0000000000000000e+00  0.0000000000000000e+00 0.0000000000000000e+00 0.0000000000000000e+00  0.0000000000000000e+00 0.0000000000000000e+00 0.0000000000000000e+00  0.0000000000000000e+00 0.0000000000000000e+00 0.0000000000000000e+00  2.9046200358377729e-05 -1.1884228805430969e-02 0.0000000000000000e+00  0.0000000000000000e+00 0.0000000000000000e+00 0.0000000000000000e+00  0.0000000000000000e+00 0.0000000000000000e+00 0.0000000000000000e+00  1.9877037718199396e-05 -1.6611600126448512e-02 0.0000000000000000e+00  3.4691905014000377e-05 -1.7036850921149753e-02 0.0000000000000000e+00  0.0000000000000000e+00 0.0000000000000000e+00 0.0000000000000000e+00  5.3125394806926488e-05 -1.2579842434167174e-02 0.0000000000000000e+00  3.6125414432197724e-05 -1.6340865912770643e-02 0.0000000000000000e+00  5.7007254387180068e-05 -1.6875449929010026e-02 0.0000000000000000e+00  0.0000000000000000e+00 0.0000000000000000e+00 0.0000000000000000e+00  0.0000000000000000e+00 0.0000000000000000e+00 0.0000000000000000e+00  0.0000000000000000e+00 0.0000000000000000e+00 0.0000000000000000e+00  2.1793007074721586e-05 -1.2589438527601219e-02 0.0000000000000000e+00  5.4602388970537186e-05 -1.6340612516324626e-02 0.0000000000000000e+00  4.1904905422545489e-05 -1.6868063722237033e-02 0.0000000000000000e+00  0.0000000000000000e+00 0.0000000000000000e+00 0.0000000000000000e+00  0.0000000000000000e+00 0.0000000000000000e+00 0.0000000000000000e+00  7.6555082250198244e-05 -1.7470843130475415e-02 0.0000000000000000e+00  8.5503961735298154e-05 -1.7485634049489596e-02 0.0000000000000000e+00  7.5697592764326546e-05 -1.7485151452205857e-02 0.0000000000000000e+00  7.1896687889233738e-05 -1.7484537472775636e-02 0.0000000000000000e+00  8.0460380185499184e-05 -1.7484250077390212e-02 0.0000000000000000e+00  7.5065710378789823e-05 -1.7425924523835134e-02 0.0000000000000000e+00  9.8710861890069360e-05 -1.7396917084488504e-02 0.0000000000000000e+00  9.1841686754736606e-05 -1.7393422343336348e-02 0.0000000000000000e+00  9.9645796014056088e-05 -1.7416972438213472e-02 0.0000000000000000e+00  9.7194713267577764e-05 -1.7411153480496308e-02 0.0000000000000000e+00  9.0654810462135205e-05 -1.7408637693594887e-02 0.0000000000000000e+00  7.8431082479886102e-05 -1.7343135708432766e-02 0.0000000000000000e+00  8.4009210586743777e-05 -1.7435577559522009e-02 0.0000000000000000e+00  7.3857620786011390e-05 -1.7443872611372507e-02 0.0000000000000000e+00  7.6226261837674628e-05 -1.7452284738101446e-02 0.0000000000000000e+00  6.7830019707828325e-05 -1.7458778548100812e-02 0.0000000000000000e+00  7.9481008431184577e-05 -1.7440449301241442e-02 0.0000000000000000e+00  7.0273856658513504e-05 -1.7368681452493408e-02 0.0000000000000000e+00  8.1686155605405531e-05 -1.7794553202718746e-02 0.0000000000000000e+00  7.3257083635984687e-05 -1.7808007649980723e-02 0.0000000000000000e+00  7.7741870517888595e-05 -1.7814207598519739e-02 0.0000000000000000e+00  7.7922021418850719e-05 -1.7818833379500642e-02 0.0000000000000000e+00  7.4709708038822430e-05 -1.7807544995441300e-02 0.0000000000000000e+00  6.4282521494883320e-05 -1.7744248336910216e-02 0.0000000000000000e+00  7.0208273273228200e-05 -1.7585960293686895e-02 0.0000000000000000e+00  8.5759853063337434e-05 -1.7576943092890370e-02 0.0000000000000000e+00  7.1365078170821967e-05 -1.7603987103383532e-02 0.0000000000000000e+00  6.9232278870059576e-05 -1.7589962078450479e-02 0.0000000000000000e+00  7.8561883478185150e-05 -1.7594313940194155e-02 0.0000000000000000e+00  7.7688445288496999e-05 -1.7526075460946214e-02 0.0000000000000000e+00  9.0699151008207627e-05 -1.7836577676223712e-02 0.0000000000000000e+00  8.2740915215899795e-05 -1.7832467505122764e-02 0.0000000000000000e+00  8.6907644811298784e-05 -1.7843169920454805e-02 0.0000000000000000e+00  8.3177350145459048e-05 -1.7838236576764144e-02 0.0000000000000000e+00  8.4364987087942004e-05 -1.7837220562747749e-02 0.0000000000000000e+00  8.4049962454137405e-05 -1.7773231401437415e-02 0.0000000000000000e+00  8.9371860779163383e-05 -1.7777802542285906e-02 0.0000000000000000e+00  8.3244207146613018e-05 -1.7779755382691491e-02 0.0000000000000000e+00  8.3777127770174873e-05 -1.7785873692096471e-02 0.0000000000000000e+00  8.1222628891096225e-05 -1.7782038075685680e-02 0.0000000000000000e+00  8.8870012326349015e-05 -1.7785159797564842e-02 0.0000000000000000e+00  9.2702623988294704e-05 -1.7715928308880451e-02 0.0000000000000000e+00  8.0537307382439345e-05 -1.7739798719260590e-02 0.0000000000000000e+00  7.4441321860988329e-05 -1.7754193901037590e-02 0.0000000000000000e+00  7.7557861682006336e-05 -1.7759846818093381e-02 0.0000000000000000e+00  7.8531493377735406e-05 -1.7764641911246253e-02 0.0000000000000000e+00  7.4700876673002204e-05 -1.7751574495729831e-02 0.0000000000000000e+00  6.6091876153045190e-05 -1.7683805408953007e-02 0.0000000000000000e+00  9.3741594984632427e-05 -1.7715293841491415e-02 0.0000000000000000e+00  8.6832044958876572e-05 -1.7711030170595971e-02 0.0000000000000000e+00  9.4423871455350740e-05 -1.7734217567895741e-02 0.0000000000000000e+00  9.1814382595344931e-05 -1.7727599881703915e-02 0.0000000000000000e+00  8.5540813404015324e-05 -1.7727487105936305e-02 0.0000000000000000e+00  7.3593571607655602e-05 -1.7662131996671465e-02 0.0000000000000000e+00  1.0641681703758770e-04 -1.7678375815314794e-02 0.0000000000000000e+00  8.5280241063040674e-05 -1.7683556547041103e-02 0.0000000000000000e+00  9.7509844970094142e-05 -1.7702324381388263e-02 0.0000000000000000e+00  8.1828556259701783e-05 -1.7688353681505668e-02 0.0000000000000000e+00  9.5826008572701970e-05 -1.7701913928165260e-02 0.0000000000000000e+00  9.4819515970591273e-05 -1.7635836141800618e-02 0.0000000000000000e+00  1.0029559585049069e-04 -1.7613503150517101e-02 0.0000000000000000e+00  8.5126286175283040e-05 -1.7627392031495829e-02 0.0000000000000000e+00  9.4972483964761426e-05 -1.7631372608474097e-02 0.0000000000000000e+00  8.2980040285763110e-05 -1.7622182368258237e-02 0.0000000000000000e+00  8.7406952916955125e-05 -1.7629263303815933e-02 0.0000000000000000e+00  8.3356295605272891e-05 -1.7569224419658143e-02 0.0000000000000000e+00  6.3170086561281004e-05 -1.6580982847313148e-02 0.0000000000000000e+00  8.3832554721070015e-05 -1.7529256496670337e-02 0.0000000000000000e+00  9.5928215124846587e-05 -1.6781857570728868e-02 0.0000000000000000e+00  6.0732640646604018e-05 -1.1915000023135168e-02 0.0000000000000000e+00  0.0000000000000000e+00 0.0000000000000000e+00 0.0000000000000000e+00  6.5516511142358515e-05 -1.6513535619346015e-02 0.0000000000000000e+00  7.5523149366843603e-05 -1.7452101593536256e-02 0.0000000000000000e+00  7.9473511228145852e-05 -1.6711122595423039e-02 0.0000000000000000e+00  5.3088476024019726e-05 -1.1828801820234887e-02 0.0000000000000000e+00  0.0000000000000000e+00 0.0000000000000000e+00 0.0000000000000000e+00  6.9920908303660172e-05 -1.6620877331325851e-02 0.0000000000000000e+00  6.4220178630142936e-05 -1.7544161826524043e-02 0.0000000000000000e+00  4.9612566307053570e-05 -1.6901013495330550e-02 0.0000000000000000e+00  2.8672127899574096e-05 -1.1812844364650209e-02 0.0000000000000000e+00  0.0000000000000000e+00 0.0000000000000000e+00 0.0000000000000000e+00  8.6841719847446859e-05 -1.6471692575461418e-02 0.0000000000000000e+00  1.1915211370772911e-04 -1.7406163393528913e-02 0.0000000000000000e+00  5.2247461754286598e-05 -1.6723759720707197e-02 0.0000000000000000e+00  3.8375941831200748e-05 -1.1850541370080615e-02 0.0000000000000000e+00  0.0000000000000000e+00 0.0000000000000000e+00 0.0000000000000000e+00  6.8398669243354031e-05 -1.6636476590943174e-02 0.0000000000000000e+00  6.3529536391909711e-05 -1.7569521861460755e-02 0.0000000000000000e+00  5.1220117516178559e-05 -1.6826918445124069e-02 0.0000000000000000e+00  3.8217066941170933e-05 -1.1947029136308712e-02 0.0000000000000000e+00  0.0000000000000000e+00 0.0000000000000000e+00 0.0000000000000000e+00  7.2617454991403128e-05 -1.6659340451130433e-02 0.0000000000000000e+00  8.6447494019636784e-05 -1.7600806326284614e-02 0.0000000000000000e+00  9.6714123171078449e-05 -1.6850439571339287e-02 0.0000000000000000e+00  6.4187254583322523e-05 -1.1987442933073736e-02 0.0000000000000000e+00  0.0000000000000000e+00 0.0000000000000000e+00 0.0000000000000000e+00  7.2421996529483556e-05 -1.6730627388083626e-02 0.0000000000000000e+00  8.2066017085208041e-05 -1.7645446035180458e-02 0.0000000000000000e+00  8.9359978606230687e-05 -1.7006380074172805e-02 0.0000000000000000e+00  6.6892732320659120e-05 -1.1922835776720942e-02 0.0000000000000000e+00  0.0000000000000000e+00 0.0000000000000000e+00 0.0000000000000000e+00  6.0211717353573797e-05 -1.6710351118537029e-02 0.0000000000000000e+00  5.5521675331808561e-05 -1.7621711830018382e-02 0.0000000000000000e+00  4.3502467199938863e-05 -1.6973306471908065e-02 0.0000000000000000e+00  2.4371331072025308e-05 -1.1892208667880813e-02 0.0000000000000000e+00  0.0000000000000000e+00 0.0000000000000000e+00 0.0000000000000000e+00  7.0342291011684516e-05 -1.6309387299210682e-02 0.0000000000000000e+00  6.6479506948461574e-05 -1.7248987849867236e-02 0.0000000000000000e+00  5.5432970252615908e-05 -1.6520979541342434e-02 0.0000000000000000e+00  3.9770415633118675e-05 -1.1627687562349111e-02 0.0000000000000000e+00  0.0000000000000000e+00 0.0000000000000000e+00 0.0000000000000000e+00  7.3692115713953595e-05 -1.6294473566640419e-02 0.0000000000000000e+00  6.9058109768135664e-05 -1.7222053155687266e-02 0.0000000000000000e+00  5.4950335818772171e-05 -1.6591387380863569e-02 0.0000000000000000e+00  3.2454840957561032e-05 -1.1495817817343223e-02 0.0000000000000000e+00  0.0000000000000000e+00 0.0000000000000000e+00 0.0000000000000000e+00  8.4120076859295134e-05 -1.6366252948082343e-02 0.0000000000000000e+00  1.1647670625341507e-04 -1.7303196682831354e-02 0.0000000000000000e+00  4.1929916619187288e-05 -1.6621259010872639e-02 0.0000000000000000e+00  3.6555178530438193e-05 -1.1742643049570237e-02 0.0000000000000000e+00  0.0000000000000000e+00 0.0000000000000000e+00 0.0000000000000000e+00  9.1440179998635129e-05 -1.6604741989567642e-02 0.0000000000000000e+00  1.2498918831730640e-04 -1.7492705379651051e-02 0.0000000000000000e+00  7.6781658382927789e-05 -1.6678923023317624e-02 0.0000000000000000e+00  8.9977479931645677e-05 -1.7588212690921694e-02 0.0000000000000000e+00  5.5201579577349189e-05 -1.1823710596578023e-02 0.0000000000000000e+00  0.0000000000000000e+00 0.0000000000000000e+00 0.0000000000000000e+00  7.1450670813159742e-05 -1.6325208055880672e-02 0.0000000000000000e+00  8.7895564673730705e-05 -1.7212457192393588e-02 0.0000000000000000e+00  9.6808697537015723e-05 -1.6469947560931307e-02 0.0000000000000000e+00  9.3227952340205590e-05 -1.7307107811395675e-02 0.0000000000000000e+00  6.0945058633237656e-05 -1.1631890815133312e-02 0.0000000000000000e+00  0.0000000000000000e+00 0.0000000000000000e+00 0.0000000000000000e+00  8.8585967574120116e-05 -1.6476935097705734e-02 0.0000000000000000e+00  1.0939474057349422e-04 -1.7343824139717443e-02 0.0000000000000000e+00  3.1171325061512176e-05 -1.6657828691792886e-02 0.0000000000000000e+00  7.0380718063852397e-05 -1.7446508492726186e-02 0.0000000000000000e+00  3.7454172003512166e-05 -1.1837189051103056e-02 0.0000000000000000e+00  0.0000000000000000e+00 0.0000000000000000e+00 0.0000000000000000e+00  1.0559342259387683e-04 -1.6520454227761518e-02 0.0000000000000000e+00  1.4093488725966090e-04 -1.7378627254952064e-02 0.0000000000000000e+00  8.4818447412600200e-05 -1.6692961619942305e-02 0.0000000000000000e+00  9.8282690642063564e-05 -1.7487428589500462e-02 0.0000000000000000e+00  6.9000435336189850e-05 -1.1593876069783671e-02 0.0000000000000000e+00  0.0000000000000000e+00 0.0000000000000000e+00 0.0000000000000000e+00  8.1506350339097863e-05 -1.6657018116149981e-02 0.0000000000000000e+00  9.4950636914378244e-05 -1.7313638935805415e-02 0.0000000000000000e+00  1.0098344469543818e-04 -1.6041678972461487e-02 0.0000000000000000e+00  1.6177558889633135e-05 -1.6799372742952120e-02 0.0000000000000000e+00  4.3463971620953162e-05 -1.7452355088323518e-02 0.0000000000000000e+00  -4.3549321882401537e-05 -1.6190340683923533e-02 0.0000000000000000e+00  7.4778974276285917e-05 -1.7395719736176839e-02 0.0000000000000000e+00  -2.1575563886956018e-05 -1.1192984171602739e-02 0.0000000000000000e+00  3.5053409256572151e-05 -1.7089275328820503e-02 0.0000000000000000e+00  7.0547232444878531e-05 -1.7578318564842446e-02 0.0000000000000000e+00  8.4504827602626386e-06 -1.6399322772909876e-02 0.0000000000000000e+00  7.3606847696123365e-05 -1.7014905866373518e-02 0.0000000000000000e+00  7.8060729858270265e-05 -1.7557604948328216e-02 0.0000000000000000e+00  8.1202611793379980e-05 -1.6379360103933809e-02 0.0000000000000000e+00  8.7539320041449034e-05 -1.7559932550018573e-02 0.0000000000000000e+00  1.0316671365888659e-04 -1.7538394909135849e-02 0.0000000000000000e+00  8.9916722025411855e-05 -1.7559030431757612e-02 0.0000000000000000e+00  8.9324276346292055e-05 -1.7561692291888087e-02 0.0000000000000000e+00  8.1611708081968549e-05 -1.7542827301017482e-02 0.0000000000000000e+00  8.8995855667059259e-05 -1.7355210421665410e-02 0.0000000000000000e+00  8.1658773327562533e-05 -1.7339643953508569e-02 0.0000000000000000e+00  9.1930231060954206e-05 -1.7375074912159984e-02 0.0000000000000000e+00  9.4796225048881892e-05 -1.7372260737422329e-02 0.0000000000000000e+00  9.4173293587302968e-05 -1.7347289664215837e-02 0.0000000000000000e+00  7.7832842590078787e-05 -1.7518520575579209e-02 0.0000000000000000e+00  9.3405317759876291e-05 -1.7496913088424923e-02 0.0000000000000000e+00  7.6051324707032889e-05 -1.7519736912748503e-02 0.0000000000000000e+00  7.7588036707961584e-05 -1.7525005536137964e-02 0.0000000000000000e+00  6.8788103244463698e-05 -1.7511805537218390e-02 0.0000000000000000e+00  7.9538913461348361e-05 -1.7662685112316917e-02 0.0000000000000000e+00  9.3495463845509852e-05 -1.7646155980638921e-02 0.0000000000000000e+00  8.1295453502364744e-05 -1.7661861726585796e-02 0.0000000000000000e+00  8.1133011576907968e-05 -1.7663213862033175e-02 0.0000000000000000e+00  7.1961590265025738e-05 -1.7636091984223851e-02 0.0000000000000000e+00  7.9210710852554983e-05 -1.6978013568157882e-02 0.0000000000000000e+00  9.4528982574682669e-05 -1.7637093657276628e-02 0.0000000000000000e+00  1.0138505274557458e-04 -1.6366647818161863e-02 0.0000000000000000e+00  6.6508675475208232e-05 -1.7577251096356630e-02 0.0000000000000000e+00  4.2611998933601503e-05 -1.1341003983682815e-02 0.0000000000000000e+00  7.5828157225432129e-05 -1.7055909404364751e-02 0.0000000000000000e+00  9.1924000385747040e-05 -1.7712515592601535e-02 0.0000000000000000e+00  1.0076926142758403e-04 -1.6439192232310697e-02 0.0000000000000000e+00  7.2528867454707424e-05 -1.7219443994794876e-02 0.0000000000000000e+00  8.0880792981820546e-05 -1.7700361898785762e-02 0.0000000000000000e+00  4.9358161948076312e-05 -1.1554968602184157e-02 0.0000000000000000e+00  6.0202466931032593e-05 -1.7654833853181950e-02 0.0000000000000000e+00  4.0606333213994249e-05 -1.1407291001737154e-02 0.0000000000000000e+00  7.0693493083295286e-05 -1.7254996422016850e-02 0.0000000000000000e+00  4.5013019951734943e-05 -1.1063148853288025e-02 0.0000000000000000e+00  6.8470332825235469e-06 -1.6855004974169335e-02 0.0000000000000000e+00  5.3089341959084136e-05 -1.7430339579239229e-02 0.0000000000000000e+00  -3.0132711374386754e-05 -1.6175296895951000e-02 0.0000000000000000e+00  6.9897004410741885e-05 -1.7655212719117252e-02 0.0000000000000000e+00  7.7116799007257599e-05 -1.7665196121643557e-02 0.0000000000000000e+00  7.2847913856242323e-05 -1.7660577278815214e-02 0.0000000000000000e+00  9.2231396544569213e-05 -1.7385768859178360e-02 0.0000000000000000e+00  9.3891079047376771e-05 -1.7390127502397979e-02 0.0000000000000000e+00  9.1368814688184112e-05 -1.7382855796845190e-02 0.0000000000000000e+00  6.5031544388498522e-05 -1.7527475772849160e-02 0.0000000000000000e+00  6.4596517049212178e-05 -1.7526433172742106e-02 0.0000000000000000e+00  6.9956534333826350e-05 -1.7529140299025747e-02 0.0000000000000000e+00  7.7990642233640391e-05 -1.7555007873846319e-02 0.0000000000000000e+00  8.3717317128811464e-05 -1.7558458802785781e-02 0.0000000000000000e+00  8.2594936376468269e-05 -1.7558788323349978e-02 0.0000000000000000e+00  1.7340608929051876e-05 -1.6993413662863745e-02 0.0000000000000000e+00  5.7877694206155988e-05 -1.7525517299134714e-02 0.0000000000000000e+00  -2.7850059890379663e-05 -1.6323995868044255e-02 0.0000000000000000e+00  7.8406850664379318e-05 -1.7421690115975746e-02 0.0000000000000000e+00  9.3084685118351095e-05 -1.7407812908778054e-02 0.0000000000000000e+00  7.9562095986495006e-05 -1.7489393200208304e-02 0.0000000000000000e+00  9.3172367052484620e-05 -1.6950677484342924e-02 0.0000000000000000e+00  8.5252515671028911e-05 -1.7309793336915458e-02 0.0000000000000000e+00  9.4795120983821908e-05 -1.7393764937727794e-02 0.0000000000000000e+00  7.2217602680499341e-05 -1.7384669449953358e-02 0.0000000000000000e+00  7.2408380253122801e-05 -1.7356815646606166e-02 0.0000000000000000e+00  7.1111712541439443e-05 -1.7446986544672239e-02 0.000