<?xml version="1.0"?>
<VTKFile type="UnstructuredGrid"  version="0.1"  >
<UnstructuredGrid>
<Piece  NumberOfPoints="2690" NumberOfCells="4864">
<Points>
<DataArray  type="Float64"  NumberOfComponents="3"  format="ascii">-5.004949303611501 22.00106178606638 0  -5.607194678657976 21.26357395421525 0  -5.004848589031663 21.50114937024662 0  -5.00473701240217 21.00107041998522 0  -5.60728997481471 21.76359261062399 0  -6.209637982935004 21.5259509420565 0  -9 21.99999999996945 0  -8.397597422177192 21.26272225866162 0  -9 21.49999999997139 0  -9 20.99999999997333 0  -8.397614395126745 21.76272098706511 0  -7.795212686272986 21.52543923749457 0  -9 32.9999999999446 0  -8.397971522254439 32.26271874151095 0  -9 32.49999999994358 0  -9 31.99999999994255 0  -8.397988519825486 32.76271902954921 0  -7.79596089708135 32.52543559835839 0  -5.00743357855217 33.00114919289153 0  -5.526034171894125 32.29749556436607 0  -5.007327744803067 32.50130142390175 0  -5.007213462014474 32.00111337521558 0  -5.526131929071382 32.79752477247865 0  -6.044837534553101 32.59373541837173 0  -5.012189084106417 54.00110125550768 0  -5.613606471029573 54.73854847598874 0  -5.613512968114628 54.23859409227575 0  -6.214828687737755 54.47592744299281 0  -5.012293957267774 54.50117748122223 0  -5.012396979272551 55.00111011497241 0  -9 54.99999999998974 0  -8.471555945878977 54.29630187982351 0  -9 54.49999999998872 0  -9 53.99999999998769 0  -8.471570473732839 54.79629746533336 0  -7.943129317941682 54.5925963136704 0  -9 39.99999999995897 0  -8.398259963816065 40.73771547715037 0  -8.398242973217217 40.23771566900402 0  -7.796502107686597 40.47542825819779 0  -9 40.49999999996 0  -9 40.99999999996102 0  -5.009240386855272 41.00101971093275 0  -5.58420723279879 40.26891563823273 0  -5.009135785321812 40.50118330974672 0  -5.009028525465377 40.00114958959967 0  -5.584302892442239 40.76889816757122 0  -6.159375469558587 40.53659062061093 0  -9 55.99999999999179 0  -8.423551338228748 56.74352516356829 0  -8.423536923735652 56.24352241301989 0  -7.847088966177982 56.48704467333274 0  -9 56.49999999999282 0  -9 56.99999999999384 0  -5.012637136981697 56.00105341655456 0  -5.589233288971644 56.74437927097168 0  -5.589139850730106 56.24437492224813 0  -6.165631519141219 56.48756669740878 0  -5.012748299396157 56.50121273243846 0  -5.012850872809926 57.00111320466345 0  -7.441287338420875 43.00060155190288 0  -6.595477386359283 43.10910970680515 0  -7.203394764489731 43.33804062233552 0  -6.965511286594409 43.67548066174083 0  -6.833361283697707 42.77166414249443 0  -6.22541912194705 42.54272662303672 0  -6.569234091803021 49.00113364159293 0  -7.414761806408531 48.89256189088778 0  -6.8070380662923 48.66368647820234 0  -7.044851241516061 48.32623605924568 0  -7.17694915474585 49.23000670310112 0  -7.784648490913853 49.45888795239951 0  -6.568819988299195 46.00106517051591 0  -7.414492043536522 45.89251803391196 0  -6.806664766186511 45.6636060288669 0  -7.044518731983403 45.32615236605081 0  -7.176638780021142 46.22997103272324 0  -7.784441665445375 46.45887280606559 0  -6.563460200380004 7.00110589121977 0  -7.410996814378037 6.89254963848565 0  -6.801829756097771 6.663658041250047 0  -7.040208472474785 6.326210470961721 0  -7.172618818426081 7.229997129621621 0  -7.781761602258944 7.458887438047989 0  -7.440141203326528 30.00059469993618 0  -6.593709149470654 30.10909474133616 0  -7.202073708313129 30.33801762688132 0  -6.964015348294109 30.6754369913395 0  -6.83176805816169 29.7716683245275 0  -6.223378789860035 29.54274758321263 0  -6.563055343567856 4.001053247476961 0  -7.410753806090717 4.108857581250974 0  -6.801546976089358 4.338296686505485 0  -7.040029700266585 4.6755365360992 0  -7.172271654455923 3.771615458969724 0  -7.781501612092501 3.542184772586201 0  -6.563871168277314 10.00111600197416 0  -7.41128389261489 10.10889951118432 0  -6.802283717583673 10.33834536825338 0  -7.040687241089358 10.67557470952307 0  -7.172879798570298 9.771671159780645 0  -7.781904166214807 9.542225136154119 0  -6.564282936943811 13.00112514309601 0  -7.41153306719209 12.89256516804578 0  -6.802571647959679 12.66367765114224 0  -7.040869468853226 12.32623054382547 0  -7.173235819404474 13.23001400290391 0  -7.78217295680938 13.45889955375471 0  -6.564695741517387 16.00114246453921 0  -7.411802189632791 15.89257010160021 0  -6.802943908802392 15.66369619281543 0  -7.041201247416326 15.32624716937377 0  -7.173545396358171 16.2300150204542 0  -7.782379336444541 16.45889406488301 0  -6.565108432486407 19.00102220718226 0  -7.412090881059598 19.10882661833908 0  -6.803400289614037 19.33823352780712 0  -7.041682937810076 19.67545128676455 0  -7.173807651866398 18.77160566654922 0  -7.782522663326578 18.5421860773995 0  -6.566207669120598 27.00098347395525 0  -7.41280766243114 27.10880224960486 0  -6.804391801551039 27.33821635441239 0  -7.042566782791327 27.67545073735989 0  -7.174632053604649 26.77156183873488 0  -7.783072282898702 26.54214918488491 0  -8.269915560994129 19.09420199393911 0  -8.026222920185527 18.81819234477131 0  -8.391252010481526 18.27109601703975 0  -8.634946485069115 18.54710565734804 0  -9 17.99999999998495 0  -8.270245121104987 27.09418974813384 0  -8.026662503063937 26.8181695952681 0  -8.3915268357682 26.27107362156054 0  -8.635111284936768 26.54709468021453 0  -9 25.99999999995395 0  -8.269784000324844 15.90643809778247 0  -8.026077864010173 16.18266668978076 0  -8.391198976200453 16.72944458699927 0  -8.634903283798158 16.45321727356961 0  -9 16.99999999998883 0  -5.736413845195705 30.09519983431423 0  -5.979892234638965 29.81897220451703 0  -5.614964703490154 29.27215294037173 0  -5.371482885889784 29.54843043999431 0  -5.006525004265518 29.00105981870427 0  -8.269660274110619 12.90643775680969 0  -8.025912816324594 13.18266842972123 0  -8.391095783829046 13.72945024177716 0  -8.634841406620369 13.4532193948698 0  -9 13.99999999999401 0  -8.269544537415973 10.09423612484647 0  -8.025728138140025 9.818230678892762 0  -8.390942807832602 9.271112385890069 0  -8.63476103077282 9.547117844561107 0  -9 8.99999999999857 0  -8.269301590234404 4.094216284714803 0  -8.025405086042468 3.818201430541228 0  -8.390743234141626 3.271090826326738 0  -8.634640698623924 3.547105910904309 0  -9 2.999999999998668 0  -8.269413790991875 6.906429983435485 0  -8.025583918925268 7.182658498362283 0  -8.39089006779326 7.729444043041195 0  -8.63471808033349 7.45321564172679 0  -9 7.999999999999485 0  -8.271020772452689 45.90641542633898 0  -8.027727412629661 46.18264289245027 0  -8.392230164556047 46.72943830668142 0  -8.635521672134463 46.45321094786734 0  -9 46.99999999997333 0  -8.271144747331881 48.90643371040131 0  -8.027892809177036 49.18266141545097 0  -8.392333542781046 49.72944147235383 0  -8.635583667263329 49.45321531672786 0  -9 49.99999999997949 0  -5.738812632835335 43.09521248339689 0  -5.982111739220164 42.81896882741889 0  -5.617451996615913 42.27211687457144 0  -5.374149622658119 42.54841601583446 0  -5.009458821151001 42.00101749726583 0  -5.730538259256781 23.91763501642194 0  -5.979012412567056 24.18525632734253 0  -5.616548209957031 24.72722188574313 0  -6.227478590803845 24.45288099428684 0  -5.368077949369884 24.45965121573437 0  -5.005641405045828 25.00105791948154 0  -8.276004953044918 52.08397356427237 0  -8.027957404214552 51.81634604112326 0  -8.389941748835012 51.2743636459612 0  -7.779902374637407 51.54872150930753 0  -8.637991425542021 51.54199110153537 0  -9 50.99999999998153 0  -5.733154174533166 38.08497274847594 0  -5.981337525389666 37.81711484751156 0  -5.618942831149647 37.27538675910396 0  -6.22952886939269 37.54926122692707 0  -5.370755740948593 37.54330450240801 0  -5.008328447876911 37.00096996991492 0  -5.732569820243535 34.91762434033155 0  -5.980889815017633 35.18523811870953 0  -5.61865144236142 35.72719069567104 0  -6.229201840037272 35.4528551895858 0  -5.370334701187538 35.45963484760805 0  -5.008125564836048 36.00101205836487 0  -7.886960468981998 50.50066821449145 0  -7.833429859193225 51.0246961918447 0  -8.443488068460939 50.75033130630977 0  -6.12229660940819 36.50104992298493 0  -6.175914000696814 37.02514887053669 0  -5.565310975362447 36.7511989184291 0  -6.175747976305227 35.97694610857091 0  -5.565215704987986 36.25118873542107 0  -5.981000500541378 25.26111490875586 0  -6.104237010819876 24.85700046316487 0  -5.493321232805031 25.131280688602 0  -8.028908959506246 25.74619688975836 0  -7.905987852025442 26.14417300583983 0  -8.514457963245924 25.87309861307947 0  -6.946314827393415 34.37667733450417 0  -6.587747217022358 34.91477197826595 0  -6.844241980540159 35.2392162236202 0  -7.202810824587018 34.70113016987443 0  -7.459297340350321 35.02558114098583 0  -7.06343363645245 52.62486949962747 0  -7.421657127361852 52.08680108801497 0  -7.165417454213313 51.7623733680915 0  -6.807195141373749 52.30044489019232 0  -6.550947236225352 51.97602342281074 0  -6.946808434458963 38.62486481339374 0  -6.588179702302494 38.0870690885134 0  -6.844549179864962 37.76241763414644 0  -7.203176620904319 38.30022242380488 0  -7.459554287257238 37.97557788345329 0  -6.945038024074997 23.37668325710574 0  -6.586247248810961 23.91478558614893 0  -6.84290135708613 24.23923455175172 0  -7.201693379327276 23.70113953635551 0  -7.45833928087583 24.02559283024631 0  -7.885028368968867 17.50049817974221 0  -7.83377399393668 18.02134370663887 0  -8.442522058751869 17.75024616351072 0  -7.833705365078693 16.97969670637863 0  -8.442506309305447 17.25025069577136 0  -7.884462303010128 8.500510096587075 0  -7.833181722536964 9.021367712275923 0  -8.442238989569267 8.750255168325074 0  -7.931405835839631 2.416038745629299 0  -7.856450468063386 2.979110392309796 0  -8.465710398266593 2.708020896153804 0  -7.833113437796076 7.979699045762961 0  -8.442223324052836 8.250254688070928 0  -7.835806016574225 49.97977871417236 0  -8.443472354059045 50.25033571777123 0  -6.033565617069902 41.59413028347272 0  -6.129494659299533 42.068432776704
[...]
<PointData  Vectors="f_27"> 
<DataArray  type="Float64"  Name="f_27"  NumberOfComponents="3" format="ascii">0.0000000000000000e+00 0.0000000000000000e+00 0.0000000000000000e+00  7.6643822350532062e-07 -5.5616785952885221e-03 0.0000000000000000e+00  0.0000000000000000e+00 0.0000000000000000e+00 0.0000000000000000e+00  0.0000000000000000e+00 0.0000000000000000e+00 0.0000000000000000e+00  -1.1523735859448228e-05 -7.7836805723646837e-03 0.0000000000000000e+00  -2.7529226875337898e-06 -8.0122867193221248e-03 0.0000000000000000e+00  0.0000000000000000e+00 0.0000000000000000e+00 0.0000000000000000e+00  3.1121415132833863e-06 -5.6629010606838118e-03 0.0000000000000000e+00  0.0000000000000000e+00 0.0000000000000000e+00 0.0000000000000000e+00  0.0000000000000000e+00 0.0000000000000000e+00 0.0000000000000000e+00  1.8440510973886958e-05 -7.7711251329646179e-03 0.0000000000000000e+00  9.2979383226960157e-06 -8.0465940436090060e-03 0.0000000000000000e+00  0.0000000000000000e+00 0.0000000000000000e+00 0.0000000000000000e+00  2.2905726495228420e-06 -5.5555862976035125e-03 0.0000000000000000e+00  0.0000000000000000e+00 0.0000000000000000e+00 0.0000000000000000e+00  0.0000000000000000e+00 0.0000000000000000e+00 0.0000000000000000e+00  1.7345186648553917e-05 -7.7637447036487967e-03 0.0000000000000000e+00  8.1924416939415272e-06 -8.0396407844664751e-03 0.0000000000000000e+00  0.0000000000000000e+00 0.0000000000000000e+00 0.0000000000000000e+00  -6.0780500467667585e-07 -5.8320139659941888e-03 0.0000000000000000e+00  0.0000000000000000e+00 0.0000000000000000e+00 0.0000000000000000e+00  0.0000000000000000e+00 0.0000000000000000e+00 0.0000000000000000e+00  -7.7569018500050245e-06 -7.7938746940112748e-03 0.0000000000000000e+00  -1.8722378906301487e-06 -8.0586260503220219e-03 0.0000000000000000e+00  0.0000000000000000e+00 0.0000000000000000e+00 0.0000000000000000e+00  3.8808688540634837e-06 -5.8121439103627909e-03 0.0000000000000000e+00  2.0863725400656806e-05 -7.7786922296943515e-03 0.0000000000000000e+00  9.3079772800203460e-06 -8.0399200436730746e-03 0.0000000000000000e+00  0.0000000000000000e+00 0.0000000000000000e+00 0.0000000000000000e+00  0.0000000000000000e+00 0.0000000000000000e+00 0.0000000000000000e+00  0.0000000000000000e+00 0.0000000000000000e+00 0.0000000000000000e+00  -4.1131614126913861e-07 -5.8018413363228162e-03 0.0000000000000000e+00  0.0000000000000000e+00 0.0000000000000000e+00 0.0000000000000000e+00  0.0000000000000000e+00 0.0000000000000000e+00 0.0000000000000000e+00  3.1279845082013343e-06 -7.8427371045542947e-03 0.0000000000000000e+00  2.0195650872043829e-06 -8.0552468033445040e-03 0.0000000000000000e+00  0.0000000000000000e+00 0.0000000000000000e+00 0.0000000000000000e+00  -3.2272822280464963e-07 -5.5406278509468471e-03 0.0000000000000000e+00  -1.4150821683819171e-05 -7.7626509984266741e-03 0.0000000000000000e+00  -5.3263068118029385e-06 -8.0345248103923812e-03 0.0000000000000000e+00  0.0000000000000000e+00 0.0000000000000000e+00 0.0000000000000000e+00  0.0000000000000000e+00 0.0000000000000000e+00 0.0000000000000000e+00  0.0000000000000000e+00 0.0000000000000000e+00 0.0000000000000000e+00  7.4439634225189541e-06 -5.6452168356521644e-03 0.0000000000000000e+00  0.0000000000000000e+00 0.0000000000000000e+00 0.0000000000000000e+00  0.0000000000000000e+00 0.0000000000000000e+00 0.0000000000000000e+00  -2.7499214315481485e-06 -7.8492218191338579e-03 0.0000000000000000e+00  2.1058884698802659e-06 -8.0531943657834986e-03 0.0000000000000000e+00  0.0000000000000000e+00 0.0000000000000000e+00 0.0000000000000000e+00  5.9734990234354690e-06 -6.0260476281422176e-03 0.0000000000000000e+00  -6.7093884501703518e-06 -7.7985298345250092e-03 0.0000000000000000e+00  2.1393088530699711e-06 -8.0508677389469693e-03 0.0000000000000000e+00  0.0000000000000000e+00 0.0000000000000000e+00 0.0000000000000000e+00  0.0000000000000000e+00 0.0000000000000000e+00 0.0000000000000000e+00  0.0000000000000000e+00 0.0000000000000000e+00 0.0000000000000000e+00  -4.4937250147022828e-06 -6.0258106166667658e-03 0.0000000000000000e+00  8.9213558716973092e-06 -7.7983325763993925e-03 0.0000000000000000e+00  -1.3491305913978896e-07 -8.0485419123515842e-03 0.0000000000000000e+00  0.0000000000000000e+00 0.0000000000000000e+00 0.0000000000000000e+00  0.0000000000000000e+00 0.0000000000000000e+00 0.0000000000000000e+00  1.8813216183808321e-06 -8.2647732007152981e-03 0.0000000000000000e+00  6.8622000456219708e-07 -8.2696355990739823e-03 0.0000000000000000e+00  4.9433192125951061e-07 -8.2712029717791589e-03 0.0000000000000000e+00  1.8495002636551321e-07 -8.2715873694233916e-03 0.0000000000000000e+00  8.0248127207144604e-07 -8.2704601298137330e-03 0.0000000000000000e+00  -4.0746514077725615e-06 -8.2392066447365790e-03 0.0000000000000000e+00  2.8055369107771395e-06 -8.2600728325177286e-03 0.0000000000000000e+00  2.3639838588939576e-06 -8.2548005312145997e-03 0.0000000000000000e+00  2.8753110088517326e-06 -8.2655560884872890e-03 0.0000000000000000e+00  2.8997798582011620e-06 -8.2606689010710881e-03 0.0000000000000000e+00  1.6579857628229104e-06 -8.2643955605321007e-03 0.0000000000000000e+00  -1.6022798383826037e-06 -8.2340743973554134e-03 0.0000000000000000e+00  -2.2946800692842480e-06 -8.2609411010359790e-03 0.0000000000000000e+00  -1.1424411490052009e-06 -8.2657108306484206e-03 0.0000000000000000e+00  -2.3183945559512976e-06 -8.2683628324702659e-03 0.0000000000000000e+00  -1.5252903708497511e-06 -8.2699505411853412e-03 0.0000000000000000e+00  -1.8413207593969960e-06 -8.2647422887799672e-03 0.0000000000000000e+00  -3.6183183199566528e-06 -8.2344014835072001e-03 0.0000000000000000e+00  -3.8596442797849068e-07 -8.2697771521798111e-03 0.0000000000000000e+00  -9.8829964296392445e-07 -8.2740935174800516e-03 0.0000000000000000e+00  -5.9374337318237797e-07 -8.2763360658196349e-03 0.0000000000000000e+00  1.7715549011051562e-07 -8.2766098145007610e-03 0.0000000000000000e+00  -1.3711505945297901e-06 -8.2749255108120912e-03 0.0000000000000000e+00  -4.0389045604430203e-06 -8.2468853292775365e-03 0.0000000000000000e+00  -7.5478376827410796e-07 -8.2640876812986042e-03 0.0000000000000000e+00  1.6070769529293451e-06 -8.2628745761215861e-03 0.0000000000000000e+00  -1.1714384894580262e-06 -8.2739767422504006e-03 0.0000000000000000e+00  -4.0365107297086627e-07 -8.2688242222454158e-03 0.0000000000000000e+00  7.1032715534902907e-07 -8.2701526405764905e-03 0.0000000000000000e+00  -9.7407751214198271e-07 -8.2379542921163645e-03 0.0000000000000000e+00  1.3044452209520554e-06 -8.2708397279186337e-03 0.0000000000000000e+00  2.5950236918584787e-06 -8.2760138636942294e-03 0.0000000000000000e+00  2.1421360580968497e-06 -8.2777596050091044e-03 0.0000000000000000e+00  1.7979856877230187e-06 -8.2776465356797519e-03 0.0000000000000000e+00  2.3565017750226886e-06 -8.2770522534666418e-03 0.0000000000000000e+00  5.3679152544679988e-06 -8.2509834998899211e-03 0.0000000000000000e+00  5.0037162921367902e-06 -8.2690988293580917e-03 0.0000000000000000e+00  5.2599452898906336e-06 -8.2725903658120610e-03 0.0000000000000000e+00  4.7942179240856477e-06 -8.2751461894148923e-03 0.0000000000000000e+00  3.8460126498541952e-06 -8.2750948147863046e-03 0.0000000000000000e+00  6.1038927658134710e-06 -8.2737314314417203e-03 0.0000000000000000e+00  9.7343450120064082e-06 -8.2411357856471360e-03 0.0000000000000000e+00  4.9506752348236214e-07 -8.2672839333018250e-03 0.0000000000000000e+00  4.5210192542124582e-07 -8.2714260985896175e-03 0.0000000000000000e+00  5.9215320037459268e-07 -8.2738763732398222e-03 0.0000000000000000e+00  1.5061429463573098e-06 -8.2742626704363498e-03 0.0000000000000000e+00  -3.2998198599291409e-07 -8.2716942327908625e-03 0.0000000000000000e+00  -2.9243764636008121e-06 -8.2414221456154624e-03 0.0000000000000000e+00  2.7418322278589044e-06 -8.2685259208476920e-03 0.0000000000000000e+00  2.4101664400740951e-06 -8.2630193625157517e-03 0.0000000000000000e+00  2.9542778050323754e-06 -8.2739351357055575e-03 0.0000000000000000e+00  3.1240110936687587e-06 -8.2690082186616248e-03 0.0000000000000000e+00  1.5353441984797929e-06 -8.2726312742196027e-03 0.0000000000000000e+00  -1.7150528294107169e-06 -8.2421361349757274e-03 0.0000000000000000e+00  8.0168489732548177e-06 -8.2681799700605844e-03 0.0000000000000000e+00  5.1573851572315375e-06 -8.2650822631913454e-03 0.0000000000000000e+00  7.3931524268182141e-06 -8.2767976039973996e-03 0.0000000000000000e+00  5.7802061950178900e-06 -8.2706649942842284e-03 0.0000000000000000e+00  7.0698980142497100e-06 -8.2741197355592593e-03 0.0000000000000000e+00  9.8007129568903341e-06 -8.2384598845414991e-03 0.0000000000000000e+00  4.2305719532172877e-06 -8.2623738097925108e-03 0.0000000000000000e+00  4.5933562165835976e-06 -8.2706358581646471e-03 0.0000000000000000e+00  5.3304632552921487e-06 -8.2719254586467554e-03 0.0000000000000000e+00  5.0999280950916786e-06 -8.2694320510076046e-03 0.0000000000000000e+00  3.7998057294042562e-06 -8.2710301674765469e-03 0.0000000000000000e+00  6.2856474132359465e-06 -8.2422316506504806e-03 0.0000000000000000e+00  1.1384258032142283e-06 -7.7462633202578859e-03 0.0000000000000000e+00  8.2401759655870170e-06 -8.1875616472782131e-03 0.0000000000000000e+00  1.4459027753639522e-05 -7.8358992140071543e-03 0.0000000000000000e+00  8.3114791591359872e-06 -5.5739845840887614e-03 0.0000000000000000e+00  0.0000000000000000e+00 0.0000000000000000e+00 0.0000000000000000e+00  2.6875499056805890e-06 -7.7544895693360642e-03 0.0000000000000000e+00  5.5166800024323783e-06 -8.1891912405725291e-03 0.0000000000000000e+00  9.4908860311757092e-06 -7.8396369069994188e-03 0.0000000000000000e+00  5.6864637974898251e-06 -5.5726509677371102e-03 0.0000000000000000e+00  0.0000000000000000e+00 0.0000000000000000e+00 0.0000000000000000e+00  6.1925368971458725e-07 -7.7560286857795693e-03 0.0000000000000000e+00  -3.5677857426578584e-06 -8.1861480915137071e-03 0.0000000000000000e+00  -9.3938768402763426e-06 -7.8872437380355272e-03 0.0000000000000000e+00  -8.8358043162298409e-06 -5.5206562855674643e-03 0.0000000000000000e+00  0.0000000000000000e+00 0.0000000000000000e+00 0.0000000000000000e+00  5.1858543851301049e-06 -7.7474261495921294e-03 0.0000000000000000e+00  1.5008950716308476e-06 -8.1860471538473534e-03 0.0000000000000000e+00  -5.1507969642750734e-06 -7.8362975966871726e-03 0.0000000000000000e+00  -2.2711861786674975e-06 -5.5713547980495185e-03 0.0000000000000000e+00  0.0000000000000000e+00 0.0000000000000000e+00 0.0000000000000000e+00  1.7628003551726437e-06 -7.7528376790801708e-03 0.0000000000000000e+00  -2.0208340485621771e-06 -8.1877300076919953e-03 0.0000000000000000e+00  -6.9831458102042959e-06 -7.8433806860414169e-03 0.0000000000000000e+00  -3.5366270640734353e-06 -5.5731782479850880e-03 0.0000000000000000e+00  0.0000000000000000e+00 0.0000000000000000e+00 0.0000000000000000e+00  4.1252821150137411e-06 -7.7515576518018305e-03 0.0000000000000000e+00  9.1873183968230402e-06 -8.1884536065991650e-03 0.0000000000000000e+00  1.4629775867910920e-05 -7.8376200864458314e-03 0.0000000000000000e+00  9.0050049858597435e-06 -5.5760434316656348e-03 0.0000000000000000e+00  0.0000000000000000e+00 0.0000000000000000e+00 0.0000000000000000e+00  4.2377223813974015e-06 -7.7678226674624332e-03 0.0000000000000000e+00  7.3749479834712396e-06 -8.1931942790128241e-03 0.0000000000000000e+00  1.1620386116313124e-05 -7.8968601912777717e-03 0.0000000000000000e+00  1.0855408310886277e-05 -5.5283976081424678e-03 0.0000000000000000e+00  0.0000000000000000e+00 0.0000000000000000e+00 0.0000000000000000e+00  -2.1558958780752356e-06 -7.7648382919050171e-03 0.0000000000000000e+00  -5.6370392552422033e-06 -8.1896326557692502e-03 0.0000000000000000e+00  -1.0690217515260833e-05 -7.8903438293489343e-03 0.0000000000000000e+00  -9.7155857745174466e-06 -5.5241988978188073e-03 0.0000000000000000e+00  0.0000000000000000e+00 0.0000000000000000e+00 0.0000000000000000e+00  2.6130942643057335e-06 -7.7454623185391376e-03 0.0000000000000000e+00  -2.1462175720873944e-06 -8.1805718859201144e-03 0.0000000000000000e+00  -7.0702551558889398e-06 -7.8361862875456784e-03 0.0000000000000000e+00  -3.3794108277974203e-06 -5.5648540513007182e-03 0.0000000000000000e+00  0.0000000000000000e+00 0.0000000000000000e+00 0.0000000000000000e+00  6.2215424077967135e-07 -7.7476731333444744e-03 0.0000000000000000e+00  -3.5090932895530821e-06 -8.1780156485501791e-03 0.0000000000000000e+00  -9.2259399931077678e-06 -7.8795749215486068e-03 0.0000000000000000e+00  -8.7699390557206552e-06 -5.5121167551527035e-03 0.0000000000000000e+00  0.0000000000000000e+00 0.0000000000000000e+00 0.0000000000000000e+00  2.2674399208365438e-06 -7.7483278943759441e-03 0.0000000000000000e+00  -2.1539077087619958e-06 -8.1848741360619291e-03 0.0000000000000000e+00  -1.0750720370456873e-05 -7.8329228701487143e-03 0.0000000000000000e+00  -4.6997759151805013e-06 -5.5706081635336479e-03 0.0000000000000000e+00  0.0000000000000000e+00 0.0000000000000000e+00 0.0000000000000000e+00  2.2305362625224581e-06 -7.7848039522295251e-03 0.0000000000000000e+00  6.8245417146688146e-06 -8.1929900531926107e-03 0.0000000000000000e+00  9.1433712096259993e-06 -7.8362321687472699e-03 0.0000000000000000e+00  5.4150430908637636e-06 -8.2391261514030683e-03 0.0000000000000000e+00  5.0721789228421548e-06 -5.5860288883215082e-03 0.0000000000000000e+00  0.0000000000000000e+00 0.0000000000000000e+00 0.0000000000000000e+00  3.6518174862095543e-06 -7.7719514320874874e-03 0.0000000000000000e+00  9.7174907088334884e-06 -8.1834010724101975e-03 0.0000000000000000e+00  1.4941952709192142e-05 -7.8275472973749708e-03 0.0000000000000000e+00  9.8124378627779995e-06 -8.2275255856919405e-03 0.0000000000000000e+00  8.3333570398112054e-06 -5.5811926253536920e-03 0.0000000000000000e+00  0.0000000000000000e+00 0.0000000000000000e+00 0.0000000000000000e+00  -5.9284495100906472e-08 -7.7776392156167920e-03 0.0000000000000000e+00  -4.3824395125296115e-06 -8.1877543756098785e-03 0.0000000000000000e+00  -1.1128959223446913e-05 -7.8342735999373768e-03 0.0000000000000000e+00  -5.0407054048584768e-06 -8.2335786579589201e-03 0.0000000000000000e+00  -5.8005463330663261e-06 -5.5883382937537409e-03 0.0000000000000000e+00  0.0000000000000000e+00 0.0000000000000000e+00 0.0000000000000000e+00  8.2495283821656866e-06 -7.7946637963405563e-03 0.0000000000000000e+00  1.2671461203457841e-05 -8.1898147759810747e-03 0.0000000000000000e+00  1.4862483161321115e-05 -7.8846872606422487e-03 0.0000000000000000e+00  9.1141393086062608e-06 -8.2397523277799242e-03 0.0000000000000000e+00  1.2461221314478122e-05 -5.5322563322515589e-03 0.0000000000000000e+00  0.0000000000000000e+00 0.0000000000000000e+00 0.0000000000000000e+00  5.1862266956657878e-06 -7.9205802587241358e-03 0.0000000000000000e+00  1.0565626096817906e-05 -8.2275717956376941e-03 0.0000000000000000e+00  1.7970245969042188e-05 -7.6359933304162410e-03 0.0000000000000000e+00  -1.3035877154013804e-06 -7.9259427926296269e-03 0.0000000000000000e+00  -5.9905364494631763e-06 -8.2325640966278008e-03 0.0000000000000000e+00  -1.5896258142674796e-05 -7.6418559978284704e-03 0.0000000000000000e+00  8.7956178531323798e-06 -8.2033773984625594e-03 0.0000000000000000e+00  2.3495910392648550e-06 -5.3035788870221751e-03 0.0000000000000000e+00  5.1829417313857742e-06 -8.0138259409703455e-03 0.0000000000000000e+00  5.8380012272930753e-06 -8.2396161301460120e-03 0.0000000000000000e+00  9.8619246926162154e-06 -7.6840724831046875e-03 0.0000000000000000e+00  6.9604536843336469e-06 -7.9830788180165237e-03 0.0000000000000000e+00  6.4766553209848781e-06 -8.2356404902153811e-03 0.0000000000000000e+00  1.2168404438962876e-05 -7.6888114415491387e-03 0.0000000000000000e+00  5.4356554025529051e-06 -8.2709385425839329e-03 0.0000000000000000e+00  5.8595727977042275e-06 -8.2612457331303780e-03 0.0000000000000000e+00  6.1825718195683653e-06 -8.2711085907705376e-03 0.0000000000000000e+00  5.7646241338370964e-06 -8.2726145268739813e-03 0.0000000000000000e+00  5.6849505479990644e-06 -8.2649785517542977e-03 0.0000000000000000e+00  4.9158128430030346e-06 -8.2599622775394368e-03 0.0000000000000000e+00  3.7433540165332946e-06 -8.2468987406090089e-03 0.0000000000000000e+00  6.2645912144167027e-06 -8.2652889332169750e-03 0.0000000000000000e+00  5.7132080890292656e-06 -8.2675035699581248e-03 0.0000000000000000e+00  6.4238584383479110e-06 -8.2560628414057782e-03 0.0000000000000000e+00  2.9936027343887507e-07 -8.2698528350488854e-03 0.0000000000000000e+00  6.1026734108360037e-07 -8.2594599793607091e-03 0.0000000000000000e+00  -9.7076219746187338e-07 -8.2697417994912568e-03 0.0000000000000000e+00  -3.3625377126682102e-07 -8.2718182864119760e-03 0.0000000000000000e+00  -9.1889980903157956e-07 -8.2643681946732699e-03 0.0000000000000000e+00  2.7378798732127444e-06 -8.2724596460186667e-03 0.0000000000000000e+00  2.1242098807245213e-06 -8.2639729000632996e-03 0.0000000000000000e+00  2.2869310679030492e-06 -8.2720041393272974e-03 0.0000000000000000e+00  2.7611403826207674e-06 -8.2737427616089484e-03 0.0000000000000000e+00  1.6107418814024525e-06 -8.2620843670230936e-03 0.0000000000000000e+00  4.8734696045569871e-06 -7.9278667457917743e-03 0.0000000000000000e+00  1.0332324200414346e-05 -8.2356931453470214e-03 0.0000000000000000e+00  1.7676161458748587e-05 -7.6434795544152098e-03 0.0000000000000000e+00  -3.0869660325562269e-06 -8.2053806384179591e-03 0.0000000000000000e+00  -1.2540984004277371e-06 -5.3003368592338231e-03 0.0000000000000000e+00  4.0443481970754577e-06 -7.9308161515093158e-03 0.0000000000000000e+00  9.8153849636478259e-06 -8.2372767529099722e-03 0.0000000000000000e+00  1.7375244683018545e-05 -7.6454795975143489e-03 0.0000000000000000e+00  2.1480103460219615e-06 -7.9931990823432029e-03 0.0000000000000000e+00  5.7616510972695117e-06 -8.2166019333240869e-03 0.0000000000000000e+00  3.0853073652605616e-06 -5.3588466445749702e-03 0.0000000000000000e+00  -4.5696682211012275e-06 -8.2080406490686320e-03 0.0000000000000000e+00  -1.6815238835774969e-06 -5.3024127728977469e-03 0.0000000000000000e+00  -2.8970484752791204e-06 -8.1973525352606689e-03 0.0000000000000000e+00  -1.0405466403670963e-06 -5.2932168342204253e-03 0.0000000000000000e+00  -9.7486007528535834e-06 -7.9665493377995486e-03 0.0000000000000000e+00  -7.6374039718307505e-06 -8.2363160705605284e-03 0.0000000000000000e+00  -1.9566252791969221e-05 -7.6519913741576713e-03 0.0000000000000000e+00  8.6318406304757122e-07 -8.2713220288689986e-03 0.0000000000000000e+00  2.9789698803229480e-06 -8.2743831416723854e-03 0.0000000000000000e+00  5.4126819290572665e-07 -8.2737063118366490e-03 0.0000000000000000e+00  6.7487972978018669e-06 -8.2670125528682397e-03 0.0000000000000000e+00  7.8235595521795233e-06 -8.2671493765667913e-03 0.0000000000000000e+00  6.2445944792538256e-06 -8.2685337197620258e-03 0.0000000000000000e+00  -1.0532578824742136e-06 -8.2707248197865790e-03 0.0000000000000000e+00  -2.5492744703628624e-06 -8.2713547922600491e-03 0.0000000000000000e+00  -8.4282347787370934e-07 -8.2720363291940834e-03 0.0000000000000000e+00  5.4719242268293025e-06 -8.2716705253837747e-03 0.0000000000000000e+00  7.0769810679930854e-06 -8.2726030789632300e-03 0.0000000000000000e+00  5.6043494762683690e-06 -8.2727781958398423e-03 0.0000000000000000e+00  -4.6311050011139804e-06 -7.9833230997974278e-03 0.0000000000000000e+00  -2.4366371459003114e-06 -8.2332920038247458e-03 0.0000000000000000e+00  -1.0679348454421937e-05 -7.6780676704508409e-03 0.0000000000000000e+00  2.6573771362979843e-06 -8.2399895268136358e-03 0.0000000000000000e+00  5.3183354934231129e-07 -8.2318749862168895e-03 0.0000000000000000e+00  1.2050891618495038e-06 -8.2699471091766900e-03 0.0000000000000000e+00  6.7460045541552837e-06 -8.0452956900428207e-03 0.0000000000000000e+00  1.6473777724834218e-06 -8.2164365917683016e-03 0.0000000000000000e+00  3.6311896004023589e-06 -8.2536660467235779e-03 0.0000000000000000e+00  2.2515039178665402e-06 -8.2368573714619621e-03 0.0000000000000000e+00  -8.3249670903969246e-08 -8.2280032945220433e-03 