<?xml version="1.0"?>
<VTKFile type="UnstructuredGrid"  version="0.1"  >
<UnstructuredGrid>
<Piece  NumberOfPoints="2690" NumberOfCells="4864">
<Points>
<DataArray  type="Float64"  NumberOfComponents="3"  format="ascii">-5.066553079273083 22.01456664694548 0  -5.65788902707372 21.27720173853585 0  -5.065239779300518 21.51575869709968 0  -5.063688852663494 21.01463879680515 0  -5.659204230588004 21.77746903419558 0  -6.251854388614429 21.53802195014039 0  -9 21.99999999996945 0  -8.406592587847921 21.26554397455363 0  -9 21.49999999997139 0  -9 20.99999999997333 0  -8.40682605594275 21.76552701016323 0  -7.813432731647163 21.53101573235481 0  -9 32.9999999999446 0  -8.41170210239426 32.26549642554663 0  -9 32.49999999994358 0  -9 31.99999999994255 0  -8.411935344483137 32.76550090949003 0  -7.823649955487882 32.53096705382918 0  -5.10045230849129 33.01574405354987 0  -5.605336382996114 32.31193708951486 0  -5.099081895114047 32.51783659080361 0  -5.097431061607457 32.01523443897447 0  -5.606697192587284 32.81234099243543 0  -6.112939889904775 32.60667926775993 0  -5.166154728581318 54.01500400760084 0  -5.746101006387963 54.7518064123573 0  -5.744802866020562 54.25243368534196 0  -6.323253400893834 54.4876601341906 0  -5.16767878049271 54.51611946453486 0  -5.169027484406943 55.01515922821302 0  -9 54.99999999998974 0  -8.492045813771403 54.29868304480815 0  -9 54.49999999998872 0  -9 53.99999999998769 0  -8.492251572698009 54.79862025960053 0  -7.984340051712832 54.59726083090331 0  -9 39.99999999995897 0  -8.415663805366323 40.74044832732877 0  -8.415430492770087 40.24045163566464 0  -7.831083895114957 40.48085949422819 0  -9 40.49999999996 0  -9 40.99999999996102 0  -5.125252402410799 41.01392409943061 0  -5.681851354595169 40.28281037030681 0  -5.123893620872515 40.51618607318728 0  -5.12237107653096 40.01568039328784 0  -5.683168524533121 40.78257436245865 0  -6.24112661241641 40.54867533690511 0  -9 55.99999999999179 0  -8.446885048955055 56.74605576909131 0  -8.446681730355843 56.24601607522732 0  -7.893576307272991 56.49203148738184 0  -9 56.49999999999282 0  -9 56.99999999999384 0  -5.17242793675224 56.01432654693836 0  -5.72765595737743 56.75770519737826 0  -5.726376491501069 56.25764383672031 0  -6.280081728945751 56.49915075100995 0  -5.174046599664494 56.51660191463898 0  -5.175391134139789 57.01520548358265 0  -7.488909019639772 43.00824961596162 0  -6.669143466692266 43.12105805463739 0  -7.258718143451429 43.34698679913074 0  -7.028647857818741 43.68573524964904 0  -6.89921153451565 42.78223046335973 0  -6.309305066824468 42.55621609346189 0  -6.653932199828064 49.01558074973942 0  -7.469870342459898 48.90189718762448 0  -6.882896246108901 48.6767338197276 0  -7.111997867735054 48.33783971239008 0  -7.240781052597633 49.2407133671175 0  -7.827407298039987 49.465957494087 0  -6.648269193055408 46.01463321882769 0  -7.466179079979267 45.90128425069638 0  -6.877807726956787 45.67561430456589 0  -7.107475768960938 45.33667089340037 0  -7.23651955504667 46.24021651705283 0  -7.824558953502305 46.46574504520671 0  -6.575191770322665 7.01514534420607 0  -7.418523509584671 6.901689079736475 0  -6.811886017538318 6.676290269193849 0  -7.048710393522748 6.337438655150868 0  -7.181707760484112 7.240538224544369 0  -7.788014273079813 7.46592029316328 0  -7.473181318777684 30.00815652687717 0  -6.64487656253861 30.12085046823775 0  -7.2405961138487 30.346669725158 0  -7.008134994794823 30.68513209979789 0  -6.877340415503874 29.78228852485721 0  -6.281284908161683 29.55650198311978 0  -6.569817517551781 4.014418191509929 0  -7.41529766141053 4.117578208712682 0  -6.808131400431884 4.350471854051753 0  -7.046336560903453 4.686478133427557 0  -7.177099834163804 3.781542662343921 0  -7.784562624120247 3.548761566477301 0  -6.580698122632707 10.01527466908931 0  -7.422367643309068 10.11815088825917 0  -6.817966176335159 10.35113745838355 0  -7.055120389822894 10.68700096937129 0  -7.185203368257512 9.782302450764922 0  -7.789923410196395 9.549312062691358 0  -6.586219163625609 13.01541074484169 0  -7.425706819746497 12.901902767462 0  -6.821826702217749 12.67656067965319 0  -7.057563545093472 12.33771535075345 0  -7.189973851342505 13.24077023828441 0  -7.793524222778847 13.46608689634778 0  -6.59177274279497 16.01564655056528 0  -7.42933596377177 15.90197216867601 0  -6.826834826496777 15.67681390020971 0  -7.062029556126721 15.33794316881008 0  -7.194152258045007 16.24078658028952 0  -7.796316241821496 16.46601478085018 0  -6.597467648531412 19.0140135140486 0  -7.433317739546713 19.117164711105 0  -6.833140821138973 19.3496240473321 0  -7.068680635368244 19.68532314446683 0  -7.197766526163646 18.78142003530056 0  -7.798291116106595 18.54878615570406 0  -6.612489941021772 27.01349010783087 0  -7.443116043511645 27.11683711927951 0  -6.846671663423122 27.34939667780034 0  -7.080733831430377 27.68532448124838 0  -7.209050854688901 26.78082608385147 0  -7.805821354093693 26.54828482906701 0  -8.279666222537003 19.09802928369886 0  -8.03903174100741 18.82338462171067 0  -8.399015925147527 18.27443390006722 0  -8.63967573408679 18.54907870163947 0  -9 17.99999999998495 0  -8.284173210402152 27.09786440464832 0  -8.045048547465822 26.82307647515454 0  -8.402784526865936 26.27412890292647 0  -8.641933564948252 26.54892942859507 0  -9 25.99999999995395 0  -8.277852872732591 15.91074121264328 0  -8.037032375483937 16.18838629833942 0  -8.398285186915377 16.73297445640689 0  -8.639080366044643 16.45534667034585 0  -9 16.99999999998883 0  -5.8058086051091 30.1117246721684 0  -6.04349138593702 29.8340964748155 0  -5.684898109281269 29.2889730550131 0  -5.447199147481603 29.56728831534384 0  -5.087942323195786 29.01455386914803 0  -8.276182394584421 12.9107349877914 0  -8.034801990361526 13.18840788505829 0  -8.396886189621799 13.73304981239755 0  -8.638242733130051 13.45537456830673 0  -9 13.99999999999401 0  -8.274631723711478 10.09849142286949 0  -8.032327764062716 9.823902335046837 0  -8.394836853357505 9.274653657086231 0  -8.637165954628093 9.549242817671374 0  -9 8.99999999999857 0  -8.271391984679489 4.098220334865253 0  -8.028022673509131 3.823503077549604 0  -8.392180906001988 3.274359649694367 0  -8.635563505637185 3.54907995164607 0  -9 2.999999999998668 0  -8.272881476244514 6.910628064344641 0  -8.030396803776249 7.188271289227329 0  -8.3941306553464 7.732964461810959 0  -8.636590900810987 7.455322915306642 0  -9 7.999999999999485 0  -8.294791895906721 45.91044150502408 0  -8.059623717854111 46.1880761974266 0  -8.412405591266639 46.73289927804699 0  -8.647548788510559 46.4552661037355 0  -9 46.99999999997333 0  -8.296490007855718 48.91069843013009 0  -8.061895087564139 49.18833628133397 0  -8.413833564257066 49.7329444271699 0  -8.648402666685961 49.45532787672164 0  -9 49.99999999997949 0  -5.838745586124981 43.11190342616847 0  -6.073968829225318 42.83405543298598 0  -5.719067013975938 42.28848512514822 0  -5.483833098510823 42.56710114213053 0  -5.128236463511391 42.01395791508897 0  -5.785627077163029 23.93431614545343 0  -6.030488330327151 24.2004764194319 0  -5.675523758730844 24.74403009881889 0  -6.275239106267288 24.4666854628744 0  -5.430746433632303 24.47856023456029 0  -5.075894110492829 25.01446880792552 0  -8.302887301143814 52.08775555731449 0  -8.063855721308588 51.82150607870791 0  -8.412224947908292 51.27768958646875 0  -7.824717876077593 51.55529792804099 0  -8.651286327820143 51.54393820580709 0  -9 50.99999999998153 0  -5.821416778864256 38.10147428336199 0  -6.062301738271577 37.8320667185452 0  -5.708287561257225 37.29176830994783 0  -6.303294909613977 37.56270669340145 0  -5.467383863000892 37.56200736829964 0  -5.112657772603655 37.0133090290972 0  -5.813382419516625 34.93417622429438 0  -6.05614486055067 35.2002318794401 0  -5.704273777527812 35.74360284489156 0  -6.298797130372579 35.46633387401965 0  -5.461585629162315 35.47834164688177 0  -5.109850603550152 36.01379808055583 0  -7.926976854166147 50.50694689413123 0  -7.87582411506858 51.0311409286159 0  -8.463598666250931 50.75343494622042 0  -6.196737973103238 36.51438125972331 0  -6.250032676841699 37.03845356192627 0  -5.654764709111311 36.76642294971975 0  -6.247747059246365 35.99026126907079 0  -5.653434875626911 36.26625834806141 0  -6.034717221683062 25.27577837365795 0  -6.154946958125432 24.87126280633547 0  -5.555409013918147 25.14778538833745 0  -8.046515475212683 25.75104949640521 0  -7.926130936825698 26.14966664889546 0  -8.523304392526551 25.87552716786442 0  -6.996288597783018 34.38652711927919 0  -6.647390684102646 34.92651461590986 0  -6.8980484518526 35.24962940144442 0  -7.246965296897058 34.70976294874063 0  -7.497511378516493 35.03297278938644 0  -7.136128118419471 52.63469734439569 0  -7.480266370185259 52.09507594383986 0  -7.233095677196099 51.77218728775298 0  -6.888972940098501 52.31185377625265 0  -6.641682911551707 51.98905194913063 0  -7.00307098035618 38.63463024643081 0  -6.653335072264874 38.09875263415289 0  -6.902271151522658 37.77278882137394 0  -7.25199191256419 38.30879528541347 0  -7.50104243808351 37.98292851522843 0  -6.978846300625469 23.38660482728034 0  -6.626892781115401 23.92669706973003 0  -6.879720811392719 24.24987813699666 0  -7.231695050845971 23.70988824483828 0  -7.484414460035529 24.03313078712301 0  -7.898625108604719 17.50682676190668 0  -7.848435635457283 18.02782829602286 0  -8.449421110286711 17.75337375584909 0  -7.847490693898084 16.98642873406768 0  -8.449204149772575 17.25343534712691 0  -7.890998134768074 8.506983931268554 0  -7.840441186163595 9.028149391629885 0  -8.445603063254666 8.753493504888317 0  -7.933406267225789 2.421665048533758 0  -7.858942557965503 2.98519490194472 0  -8.466801211718307 2.710852946024781 0  -7.839526666470809 7.986455931722179 0  -8.445393288227223 8.253487056257271 0  -7.877213128227283 49.98646083929366 0  -8.463377348214538 50.25349628801208 0  -6.12120402757139 41.60722083163063 0  -6.21529044769883 42.08178226099289 0  -5.624793
[...]
<PointData  Vectors="f_27"> 
<DataArray  type="Float64"  Name="f_27"  NumberOfComponents="3" format="ascii">0.0000000000000000e+00 0.0000000000000000e+00 0.0000000000000000e+00  7.3911234909540798e-06 -1.1573850936294467e-02 0.0000000000000000e+00  0.0000000000000000e+00 0.0000000000000000e+00 0.0000000000000000e+00  0.0000000000000000e+00 0.0000000000000000e+00 0.0000000000000000e+00  -8.2196115032099176e-06 -1.6222597484549968e-02 0.0000000000000000e+00  1.2824313371939334e-05 -1.6688286291312197e-02 0.0000000000000000e+00  0.0000000000000000e+00 0.0000000000000000e+00 0.0000000000000000e+00  3.4206920352259543e-05 -1.1783317233964594e-02 0.0000000000000000e+00  0.0000000000000000e+00 0.0000000000000000e+00 0.0000000000000000e+00  0.0000000000000000e+00 0.0000000000000000e+00 0.0000000000000000e+00  7.6675687109304682e-05 -1.6178474111979816e-02 0.0000000000000000e+00  5.6802566732083113e-05 -1.6755398529851452e-02 0.0000000000000000e+00  0.0000000000000000e+00 0.0000000000000000e+00 0.0000000000000000e+00  3.4174635506051939e-05 -1.1486989668310344e-02 0.0000000000000000e+00  0.0000000000000000e+00 0.0000000000000000e+00 0.0000000000000000e+00  0.0000000000000000e+00 0.0000000000000000e+00 0.0000000000000000e+00  7.6632505004503541e-05 -1.6080295822624800e-02 0.0000000000000000e+00  5.9397735865810365e-05 -1.6658653355836495e-02 0.0000000000000000e+00  0.0000000000000000e+00 0.0000000000000000e+00 0.0000000000000000e+00  1.3359358004875777e-05 -1.2071553824093948e-02 0.0000000000000000e+00  0.0000000000000000e+00 0.0000000000000000e+00 0.0000000000000000e+00  0.0000000000000000e+00 0.0000000000000000e+00 0.0000000000000000e+00  1.5646675388838191e-05 -1.6156860084047413e-02 0.0000000000000000e+00  2.8330071433290169e-05 -1.6708844643511304e-02 0.0000000000000000e+00  0.0000000000000000e+00 0.0000000000000000e+00 0.0000000000000000e+00  2.5387262496670714e-05 -1.1875434911598244e-02 0.0000000000000000e+00  6.3806199996443647e-05 -1.5921476097212804e-02 0.0000000000000000e+00  4.9257396246429406e-05 -1.6475723089887966e-02 0.0000000000000000e+00  0.0000000000000000e+00 0.0000000000000000e+00 0.0000000000000000e+00  0.0000000000000000e+00 0.0000000000000000e+00 0.0000000000000000e+00  0.0000000000000000e+00 0.0000000000000000e+00 0.0000000000000000e+00  3.0871743960935496e-05 -1.1855048582405435e-02 0.0000000000000000e+00  0.0000000000000000e+00 0.0000000000000000e+00 0.0000000000000000e+00  0.0000000000000000e+00 0.0000000000000000e+00 0.0000000000000000e+00  4.6858224469943085e-05 -1.6082136749887638e-02 0.0000000000000000e+00  4.6251018535599625e-05 -1.6524566459072236e-02 0.0000000000000000e+00  0.0000000000000000e+00 0.0000000000000000e+00 0.0000000000000000e+00  2.7719079557666197e-05 -1.1402776042535392e-02 0.0000000000000000e+00  1.3629980696593794e-05 -1.6026608897938083e-02 0.0000000000000000e+00  3.0598394959469346e-05 -1.6593885330366365e-02 0.0000000000000000e+00  0.0000000000000000e+00 0.0000000000000000e+00 0.0000000000000000e+00  0.0000000000000000e+00 0.0000000000000000e+00 0.0000000000000000e+00  0.0000000000000000e+00 0.0000000000000000e+00 0.0000000000000000e+00  2.6423181079799143e-05 -1.1608077694002539e-02 0.0000000000000000e+00  0.0000000000000000e+00 0.0000000000000000e+00 0.0000000000000000e+00  0.0000000000000000e+00 0.0000000000000000e+00 0.0000000000000000e+00  1.5622795892928715e-05 -1.6215187049161060e-02 0.0000000000000000e+00  2.9437651577435757e-05 -1.6631345864234936e-02 0.0000000000000000e+00  0.0000000000000000e+00 0.0000000000000000e+00 0.0000000000000000e+00  4.6125277445522926e-05 -1.2305113820142561e-02 0.0000000000000000e+00  2.8097962752660873e-05 -1.5976334360801279e-02 0.0000000000000000e+00  4.8194258453526484e-05 -1.6498370319371427e-02 0.0000000000000000e+00  0.0000000000000000e+00 0.0000000000000000e+00 0.0000000000000000e+00  0.0000000000000000e+00 0.0000000000000000e+00 0.0000000000000000e+00  0.0000000000000000e+00 0.0000000000000000e+00 0.0000000000000000e+00  1.6867238529685563e-05 -1.2312934652675800e-02 0.0000000000000000e+00  4.8168657063006221e-05 -1.5975722691825369e-02 0.0000000000000000e+00  3.4879470365681635e-05 -1.6491320752968469e-02 0.0000000000000000e+00  0.0000000000000000e+00 0.0000000000000000e+00 0.0000000000000000e+00  0.0000000000000000e+00 0.0000000000000000e+00 0.0000000000000000e+00  6.4525406006449214e-05 -1.7057498841901407e-02 0.0000000000000000e+00  7.1760899083559749e-05 -1.7071509026905785e-02 0.0000000000000000e+00  6.3441473719524265e-05 -1.7071472887510583e-02 0.0000000000000000e+00  6.0166368322674667e-05 -1.7071161947843007e-02 0.0000000000000000e+00  6.7482853327731246e-05 -1.7070376078363269e-02 0.0000000000000000e+00  6.1496856763281111e-05 -1.7012425498245630e-02 0.0000000000000000e+00  8.3223962312019850e-05 -1.6994984730200075e-02 0.0000000000000000e+00  7.7357991377565515e-05 -1.6990475546862678e-02 0.0000000000000000e+00  8.4001359447491287e-05 -1.7013288589340942e-02 0.0000000000000000e+00  8.2029506519194504e-05 -1.7006919975997788e-02 0.0000000000000000e+00  7.6187070141761629e-05 -1.7006148050783220e-02 0.0000000000000000e+00  6.4986213350105124e-05 -1.6942443899706654e-02 0.0000000000000000e+00  6.9474077736524716e-05 -1.7027182124445504e-02 0.0000000000000000e+00  6.1265238302954820e-05 -1.7035417437854018e-02 0.0000000000000000e+00  6.2851356682381939e-05 -1.7043239143622192e-02 0.0000000000000000e+00  5.6055640256759480e-05 -1.7049092116280484e-02 0.0000000000000000e+00  6.5855164499491976e-05 -1.7032354825974767e-02 0.0000000000000000e+00  5.7604732833540995e-05 -1.6963309694594763e-02 0.0000000000000000e+00  6.8319693549966475e-05 -1.7327070864871570e-02 0.0000000000000000e+00  6.1107257054636281e-05 -1.7339579951147849e-02 0.0000000000000000e+00  6.4894231109111238e-05 -1.7345413504300775e-02 0.0000000000000000e+00  6.5324565865057014e-05 -1.7349368871816487e-02 0.0000000000000000e+00  6.2272378655129403e-05 -1.7339423550515300e-02 0.0000000000000000e+00  5.2772522468359824e-05 -1.7278198569515239e-02 0.0000000000000000e+00  5.8532423633504302e-05 -1.7152104625721858e-02 0.0000000000000000e+00  7.2319643744256628e-05 -1.7144239915237686e-02 0.0000000000000000e+00  5.9422145065029346e-05 -1.7170163564705160e-02 0.0000000000000000e+00  5.7872626285998137e-05 -1.7156958929368912e-02 0.0000000000000000e+00  6.5945493128361285e-05 -1.7160804981329145e-02 0.0000000000000000e+00  6.4666474462755821e-05 -1.7094178672950589e-02 0.0000000000000000e+00  7.6613840310170019e-05 -1.7362670085260493e-02 0.0000000000000000e+00  7.0324560120029391e-05 -1.7360713911985511e-02 0.0000000000000000e+00  7.3754722741903759e-05 -1.7370152690430726e-02 0.0000000000000000e+00  7.0475223298275505e-05 -1.7365976331927796e-02 0.0000000000000000e+00  7.1567083576341514e-05 -1.7365023535002369e-02 0.0000000000000000e+00  7.2163119603658351e-05 -1.7303796136416739e-02 0.0000000000000000e+00  7.6524453591870120e-05 -1.7312866550700221e-02 0.0000000000000000e+00  7.1462624480356072e-05 -1.7315473666317853e-02 0.0000000000000000e+00  7.1851232167286766e-05 -1.7321344925040980e-02 0.0000000000000000e+00  6.9383917188694077e-05 -1.7318112893082691e-02 0.0000000000000000e+00  7.6351554677222828e-05 -1.7320336534137625e-02 0.0000000000000000e+00  8.0620623103555376e-05 -1.7252786565120137e-02 0.0000000000000000e+00  6.7584856666769120e-05 -1.7280529934059631e-02 0.0000000000000000e+00  6.2485743650951794e-05 -1.7293737447829874e-02 0.0000000000000000e+00  6.5043672905362013e-05 -1.7299194781867391e-02 0.0000000000000000e+00  6.6175496267840782e-05 -1.7303307611380558e-02 0.0000000000000000e+00  6.2559656724892561e-05 -1.7291622117163438e-02 0.0000000000000000e+00  5.4602373529653765e-05 -1.7225999236062866e-02 0.0000000000000000e+00  7.9286299616604123e-05 -1.7260445601367153e-02 0.0000000000000000e+00  7.3459165429668732e-05 -1.7255240704337482e-02 0.0000000000000000e+00  7.9910183956680752e-05 -1.7277829396685818e-02 0.0000000000000000e+00  7.7867112084997538e-05 -1.7270841087931071e-02 0.0000000000000000e+00  7.2153018502008992e-05 -1.7271850146660793e-02 0.0000000000000000e+00  6.1208119423260236e-05 -1.7208216876118738e-02 0.0000000000000000e+00  9.1401923822691185e-05 -1.7229673125227087e-02 0.0000000000000000e+00  7.2899471035540794e-05 -1.7233173257041174e-02 0.0000000000000000e+00  8.3793421026698113e-05 -1.7252326474223680e-02 0.0000000000000000e+00  7.0234299337743576e-05 -1.7238875846070603e-02 0.0000000000000000e+00  8.2266258514399220e-05 -1.7251119330608362e-02 0.0000000000000000e+00  8.2254600933657303e-05 -1.7185334474116954e-02 0.0000000000000000e+00  8.5317519041522771e-05 -1.7174331831690842e-02 0.0000000000000000e+00  7.2650032878646641e-05 -1.7188454909440806e-02 0.0000000000000000e+00  8.1158940451336176e-05 -1.7192167971969534e-02 0.0000000000000000e+00  7.0956736913214765e-05 -1.7183777235365804e-02 0.0000000000000000e+00  7.4342713251442040e-05 -1.7190068507573451e-02 0.0000000000000000e+00  7.1650886076652650e-05 -1.7131349864332412e-02 0.0000000000000000e+00  5.3228010648537349e-05 -1.6157245114034581e-02 0.0000000000000000e+00  7.2605925195328485e-05 -1.7081120079212191e-02 0.0000000000000000e+00  8.4567257074579633e-05 -1.6352037653155793e-02 0.0000000000000000e+00  5.3288416354923237e-05 -1.1611439938094836e-02 0.0000000000000000e+00  0.0000000000000000e+00 0.0000000000000000e+00 0.0000000000000000e+00  5.5632668461499829e-05 -1.6103818212311157e-02 0.0000000000000000e+00  6.4846751575071135e-05 -1.7017651093813823e-02 0.0000000000000000e+00  6.9311999256982092e-05 -1.6294587795010515e-02 0.0000000000000000e+00  4.6109732106640707e-05 -1.1539260087149705e-02 0.0000000000000000e+00  0.0000000000000000e+00 0.0000000000000000e+00 0.0000000000000000e+00  5.8801799151962387e-05 -1.6193260658189209e-02 0.0000000000000000e+00  5.2811251204201198e-05 -1.7092933787656958e-02 0.0000000000000000e+00  3.8881703367513114e-05 -1.6466754140916369e-02 0.0000000000000000e+00  2.1484054674842398e-05 -1.1510032257702682e-02 0.0000000000000000e+00  0.0000000000000000e+00 0.0000000000000000e+00 0.0000000000000000e+00  7.4420413081265709e-05 -1.6066553946780374e-02 0.0000000000000000e+00  1.0027562706848152e-04 -1.6978537694920501e-02 0.0000000000000000e+00  4.2103150062985570e-05 -1.6304371269848971e-02 0.0000000000000000e+00  3.1576770340789575e-05 -1.1557480249974425e-02 0.0000000000000000e+00  0.0000000000000000e+00 0.0000000000000000e+00 0.0000000000000000e+00  5.7873005633126513e-05 -1.6205230477218120e-02 0.0000000000000000e+00  5.2705544767135032e-05 -1.7114468413580601e-02 0.0000000000000000e+00  4.0967065411790407e-05 -1.6391670207836894e-02 0.0000000000000000e+00  3.1037382565914794e-05 -1.1637717297520989e-02 0.0000000000000000e+00  0.0000000000000000e+00 0.0000000000000000e+00 0.0000000000000000e+00  6.2157117252117800e-05 -1.6223976839183255e-02 0.0000000000000000e+00  7.5227448068832393e-05 -1.7140852042761980e-02 0.0000000000000000e+00  8.5388841643718020e-05 -1.6409589604970746e-02 0.0000000000000000e+00  5.6467322811471645e-05 -1.1672371024472552e-02 0.0000000000000000e+00  0.0000000000000000e+00 0.0000000000000000e+00 0.0000000000000000e+00  6.2082576590009671e-05 -1.6288556380297230e-02 0.0000000000000000e+00  7.1091102535235769e-05 -1.7179737061446647e-02 0.0000000000000000e+00  7.8398791279391894e-05 -1.6557707351475045e-02 0.0000000000000000e+00  5.9302317651167098e-05 -1.1604277548599383e-02 0.0000000000000000e+00  0.0000000000000000e+00 0.0000000000000000e+00 0.0000000000000000e+00  4.9909019450605839e-05 -1.6270620191139656e-02 0.0000000000000000e+00  4.4973234200972361e-05 -1.7158709679251292e-02 0.0000000000000000e+00  3.3451906042905058e-05 -1.6527972124785652e-02 0.0000000000000000e+00  1.7664940958621461e-05 -1.1577356558107731e-02 0.0000000000000000e+00  0.0000000000000000e+00 0.0000000000000000e+00 0.0000000000000000e+00  5.9470613951351385e-05 -1.5932014658031162e-02 0.0000000000000000e+00  5.4826954950329201e-05 -1.6847137172886328e-02 0.0000000000000000e+00  4.4154765066315521e-05 -1.6136449227191298e-02 0.0000000000000000e+00  3.2203346281566663e-05 -1.1369515695923550e-02 0.0000000000000000e+00  0.0000000000000000e+00 0.0000000000000000e+00 0.0000000000000000e+00  6.1674105972951191e-05 -1.5920757292141246e-02 0.0000000000000000e+00  5.6561411781704800e-05 -1.6824464720221664e-02 0.0000000000000000e+00  4.3096665599747412e-05 -1.6208820408650130e-02 0.0000000000000000e+00  2.4494359069002019e-05 -1.1243921989586896e-02 0.0000000000000000e+00  0.0000000000000000e+00 0.0000000000000000e+00 0.0000000000000000e+00  7.1376809369347492e-05 -1.5980287627192110e-02 0.0000000000000000e+00  9.6990649753781545e-05 -1.6893762803147201e-02 0.0000000000000000e+00  3.1779982575556741e-05 -1.6219381840894317e-02 0.0000000000000000e+00  2.9487514019868540e-05 -1.1468230741140480e-02 0.0000000000000000e+00  0.0000000000000000e+00 0.0000000000000000e+00 0.0000000000000000e+00  7.7304161850444468e-05 -1.6188600677457095e-02 0.0000000000000000e+00  1.0688984461774797e-04 -1.7052835743066246e-02 0.0000000000000000e+00  6.7114049057428240e-05 -1.6266087234047381e-02 0.0000000000000000e+00  7.7047679780158483e-05 -1.7146284812895651e-02 0.0000000000000000e+00  4.7919929474878723e-05 -1.1538399205078575e-02 0.0000000000000000e+00  0.0000000000000000e+00 0.0000000000000000e+00 0.0000000000000000e+00  6.0657514702218853e-05 -1.5954410526543256e-02 0.0000000000000000e+00  7.6180317835868145e-05 -1.6818671183281717e-02 0.0000000000000000e+00  8.5178700409078436e-05 -1.6092209366921892e-02 0.0000000000000000e+00  8.0692762848175788e-05 -1.6910860491276561e-02 0.0000000000000000e+00  5.3312586021848941e-05 -1.1378660573541559e-02 0.0000000000000000e+00  0.0000000000000000e+00 0.0000000000000000e+00 0.0000000000000000e+00  7.4399837984590129e-05 -1.6080717129688036e-02 0.0000000000000000e+00  9.0338318901744301e-05 -1.6927692708387915e-02 0.0000000000000000e+00  2.2611885521354459e-05 -1.6249415275054569e-02 0.0000000000000000e+00  5.7282826556108725e-05 -1.7027155382164177e-02 0.0000000000000000e+00  2.9856261666130709e-05 -1.1552133758287573e-02 0.0000000000000000e+00  0.0000000000000000e+00 0.0000000000000000e+00 0.0000000000000000e+00  9.0980237931159041e-05 -1.6121815116445618e-02 0.0000000000000000e+00  1.2199068952994505e-04 -1.6957397628162910e-02 0.0000000000000000e+00  7.5445449764793192e-05 -1.6293047458532470e-02 0.0000000000000000e+00  8.5038666709814562e-05 -1.7063173234527048e-02 0.0000000000000000e+00  6.1735590808319779e-05 -1.1330263170902022e-02 0.0000000000000000e+00  0.0000000000000000e+00 0.0000000000000000e+00 0.0000000000000000e+00  6.9558371090127716e-05 -1.6275757529251700e-02 0.0000000000000000e+00  8.2361931929057788e-05 -1.6916233865078678e-02 0.0000000000000000e+00  8.9562591445133924e-05 -1.5676644466340300e-02 0.0000000000000000e+00  1.2911651379359844e-05 -1.6394277431080864e-02 0.0000000000000000e+00  3.4295138967506423e-05 -1.7031614948529738e-02 0.0000000000000000e+00  -4.1480475686828546e-05 -1.5800037982578428e-02 0.0000000000000000e+00  6.5199948377165439e-05 -1.6975672958166255e-02 0.0000000000000000e+00  -1.7616537539413987e-05 -1.0928061055297984e-02 0.0000000000000000e+00  3.0888421589600205e-05 -1.6661872024552157e-02 0.0000000000000000e+00  6.0909169140665540e-05 -1.7138208062707536e-02 0.0000000000000000e+00  9.8100169109230972e-06 -1.5986415684664905e-02 0.0000000000000000e+00  6.3680553616311228e-05 -1.6590830909452299e-02 0.0000000000000000e+00  6.7264689335901361e-05 -1.7119623952023363e-02 0.0000000000000000e+00  7.1535812643670779e-05 -1.5971984916833510e-02 0.0000000000000000e+00  7.4837929836899455e-05 -1.7132805827289616e-02 0.0000000000000000e+00  8.8121461029969130e-05 -1.7112015249416204e-02 0.0000000000000000e+00  7.7094042826416977e-05 -1.7132271335236499e-02 0.0000000000000000e+00  7.6440285674931715e-05 -1.7134857009820054e-02 0.0000000000000000e+00  6.9951953114155777e-05 -1.7116847900411129e-02 0.0000000000000000e+00  7.5769529306513955e-05 -1.6960833446285628e-02 0.0000000000000000e+00  6.9238009166135506e-05 -1.6943970653253079e-02 0.0000000000000000e+00  7.8586817518673061e-05 -1.6978840100615043e-02 0.0000000000000000e+00  8.0887216461508331e-05 -1.6977152323315918e-02 0.0000000000000000e+00  8.0510822869051747e-05 -1.6952701618831324e-02 0.0000000000000000e+00  6.5232929129161008e-05 -1.7098390477157228e-02 0.0000000000000000e+00  7.8424623606227305e-05 -1.7077156415015383e-02 0.0000000000000000e+00  6.3322392436896023e-05 -1.7099199663469365e-02 0.0000000000000000e+00  6.4815478192053184e-05 -1.7104312742660322e-02 0.0000000000000000e+00  5.7245671180237336e-05 -1.7091029714675739e-02 0.0000000000000000e+00  6.7402130362391688e-05 -1.7218268064380277e-02 0.0000000000000000e+00  7.8948209707366561e-05 -1.7202027822283843e-02 0.0000000000000000e+00  6.8786958622021825e-05 -1.7217538801733320e-02 0.0000000000000000e+00  6.8755928510361251e-05 -1.7219125129086101e-02 0.0000000000000000e+00  6.0747726290989454e-05 -1.7192987377577455e-02 0.0000000000000000e+00  6.7820474694904191e-05 -1.6543039092722561e-02 0.0000000000000000e+00  8.2202375474391376e-05 -1.7185513132374625e-02 0.0000000000000000e+00  9.0085687246856824e-05 -1.5947474210293491e-02 0.0000000000000000e+00  5.4886560902626397e-05 -1.7126350425678744e-02 0.0000000000000000e+00  3.5362653459997977e-05 -1.1050831445790119e-02 0.0000000000000000e+00  6.4813526305709562e-05 -1.6608835189409279e-02 0.0000000000000000e+00  7.9972207494879025e-05 -1.7248773892748214e-02 0.0000000000000000e+00  8.9571105577048650e-05 -1.6008471619510196e-02 0.0000000000000000e+00  6.1515178860084956e-05 -1.6764286582130229e-02 0.0000000000000000e+00  6.9586585474900678e-05 -1.7232645934843846e-02 0.0000000000000000e+00  4.2334165587557675e-05 -1.1246959569879283e-02 0.0000000000000000e+00  4.9224071150562582e-05 -1.7191863449306784e-02 0.0000000000000000e+00  3.3603916271830310e-05 -1.1106722790933604e-02 0.0000000000000000e+00  5.8137210157251989e-05 -1.6857896055645007e-02 0.0000000000000000e+00  3.7273835733070124e-05 -1.0818083167082880e-02 0.0000000000000000e+00  2.5585354945777764e-06 -1.6453553200113893e-02 0.0000000000000000e+00  4.1902745475829267e-05 -1.7015195735586682e-02 0.0000000000000000e+00  -3.1287351070715034e-05 -1.5791231468031571e-02 0.0000000000000000e+00  5.8839145342073917e-05 -1.7211822604907216e-02 0.0000000000000000e+00  6.5541838547504222e-05 -1.7221119946616369e-02 0.0000000000000000e+00  6.1202162051760141e-05 -1.7216964973665545e-02 0.0000000000000000e+00  7.8968656500641739e-05 -1.6988117861415977e-02 0.0000000000000000e+00  8.0680348973740144e-05 -1.6991924015802389e-02 0.0000000000000000e+00  7.8072798772072392e-05 -1.6986150488249207e-02 0.0000000000000000e+00  5.3997708409599134e-05 -1.7105897547493209e-02 0.0000000000000000e+00  5.3167854512504953e-05 -1.7105151149973630e-02 0.0000000000000000e+00  5.8225334567691760e-05 -1.7107725816843507e-02 0.0000000000000000e+00  6.6863932788613928e-05 -1.7129172338252903e-02 0.0000000000000000e+00  7.2188539833675558e-05 -1.7132361354333676e-02 0.0000000000000000e+00  7.0771513540045914e-05 -1.7132590472203821e-02 0.0000000000000000e+00  1.2890818050869588e-05 -1.6572846418339240e-02 0.0000000000000000e+00  4.7503235493392245e-05 -1.7092274613447842e-02 0.0000000000000000e+00  -2.6694817876437046e-05 -1.5921741066707136e-02 0.0000000000000000e+00  6.6433202963691351e-05 -1.7009420149185904e-02 0.0000000000000000e+00  7.8192010239235593e-05 -1.6995284246691555e-02 0.0000000000000000e+00  6.6935718215401942e-05 -1.7074881897985034e-02 0.0000000000000000e+00  7.9781752923487921e-05 -1.6557984748317073e-02 0.0000000000000000e+00  7.1638641848230361e-05 -1.6909199122593824e-02 0.0000000000000000e+00  8.0226208680063519e-05 -1.6990356365726246e-02 0.0000000000000000e+00  6.0892019420248842e-05 -1.6977292875504660e-02 0.0000000000000000e+00  6.0386282522555495e-05 -1.6951386693106703e-02 0.0000000000000000e+00  5.9276030858517876e-05 -1.7038336105233625e-02 0.000