<?xml version="1.0"?>
<VTKFile type="UnstructuredGrid"  version="0.1"  >
<UnstructuredGrid>
<Piece  NumberOfPoints="2690" NumberOfCells="4864">
<Points>
<DataArray  type="Float64"  NumberOfComponents="3"  format="ascii">-5.040320702478021 22.00885499432584 0  -5.63629462190245 21.27144241619165 0  -5.039516803185911 21.5095816763019 0  -5.038590355432975 21.00890974898301 0  -5.637082663550816 21.77160172215759 0  -6.233868105744681 21.5329183303779 0  -9 21.99999999996945 0  -8.402761682614656 21.26435048258374 0  -9 21.49999999997139 0  -9 20.99999999997333 0  -8.402901784775718 21.76434011588366 0  -7.805671384489757 21.52865718737033 0  -9 32.9999999999446 0  -8.405837189943668 32.26432176046428 0  -9 32.49999999994358 0  -9 31.99999999994255 0  -8.405977305797514 32.76432434765525 0  -7.81182181033433 32.52862787866804 0  -5.060733922043728 33.0095764175199 0  -5.571466483586615 32.30583344260609 0  -5.059891143813469 32.51084615161606 0  -5.058919779773826 32.00927041889814 0  -5.572278947766121 32.80607749654679 0  -6.083847798563734 32.60120729721112 0  -5.100095823884057 54.00914433729024 0  -5.689230280603245 54.74621683961792 0  -5.688454553446178 54.24659689143768 0  -6.276717927431753 54.4827110187826 0  -5.100988159561564 54.50980791182317 0  -5.101813029720523 55.00923930293441 0  -9 54.99999999998974 0  -8.483253402925202 54.2976776527823 0  -9 54.49999999998872 0  -9 53.99999999998769 0  -8.48337538773451 54.79764019715754 0  -7.966653678824431 54.59529235261629 0  -9 39.99999999995897 0  -8.408216268588987 40.73929349063575 0  -8.408076153796827 40.23929533271657 0  -7.816285929862988 40.47856451607213 0  -9 40.49999999996 0  -9 40.99999999996102 0  -5.075630911108077 41.00848460439181 0  -5.640073454498205 40.27694590589258 0  -5.074796912392456 40.50985280768295 0  -5.073896282578549 40.00955287176651 0  -5.640863436843579 40.77680186953236 0  -6.206144447732595 40.54357271043249 0  -9 55.99999999999179 0  -8.436864342645253 56.74498783764891 0  -8.436743574953795 56.24496429382306 0  -7.873613659698953 56.48992780470486 0  -9 56.49999999999282 0  -9 56.99999999999384 0  -5.103832389762511 56.00874032399852 0  -5.668213243765944 56.75208744444984 0  -5.667444013464935 56.25205084650797 0  -6.230933952544782 56.49426650037471 0  -5.104780732272748 56.51010098341755 0  -5.105602437348987 57.00926536242677 0  -7.468524033312492 43.00501215740184 0  -6.637606444164798 43.1159986895506 0  -7.235036249603335 43.34319923523813 0  -7.001622011404626 43.68139360775074 0  -6.871021387295713 42.77775716160024 0  -6.273390088643132 42.55050367327399 0  -6.61767194764635 49.00945272318258 0  -7.446278557467928 48.89793681740436 0  -6.850425571553414 48.67119863592489 0  -7.083258897355278 48.33291669434922 0  -7.213451331319458 49.23617178462993 0  -7.809098659359936 49.46295866089104 0  -6.614264396857285 46.00888058403555 0  -7.444057991289784 45.8975682969553 0  -6.847359464969947 45.67052437894966 0  -7.080531447900385 45.3322138896207 0  -7.21089145410912 46.23587254637057 0  -7.80738985536735 46.46283104156019 0  -6.570245421525233 7.009201344466148 0  -7.415352114934482 6.897819963345913 0  -6.80765059932203 6.670942149373349 0  -7.045132839896902 6.332685230381093 0  -7.177875367812283 7.23607572667196 0  -7.785377523069058 7.462943072217918 0  -7.459075690662394 30.00495564188143 0  -6.623028811103167 30.11587370801412 0  -7.224147987754987 30.34300778769184 0  -6.989295171161199 30.6810296326476 0  -6.857884502006366 29.77779222068461 0  -6.256562633406434 29.55067719054309 0  -6.566971478630031 4.008762272581379 0  -7.413386977138667 4.113887464983594 0  -6.805363538510652 4.345319416557333 0  -7.043686901251299 4.681847490266054 0  -7.175068161446492 3.777341192074761 0  -7.783274952688995 3.545978025365213 0  -6.573586462017887 10.00928208907748 0  -7.417685203565696 10.11423491148642 0  -6.811340432644489 10.34572310348351 0  -7.049023502095299 10.68216437074515 0  -7.179996664889802 9.777802384806296 0  -7.786536179510224 9.546312177163777 0  -6.576935673175626 13.00936174176539 0  -7.419711293625293 12.89794918903709 0  -6.81368236168395 12.67110558198002 0  -7.050505644020969 12.33285249557523 0  -7.182891344184172 13.23621604485638 0  -7.78872132391232 13.46304381267969 0  -6.580299856562605 16.009505034655 0  -7.421907541430541 15.89799084869595 0  -6.816716136415286 15.67125929383939 0  -7.05321037805291 15.3329906416772 0  -7.185419036668788 16.23622539789098 0  -7.790408689493834 16.46299938440119 0  -6.583713106617188 19.00851210876894 0  -7.424294511072142 19.11363438243578 0  -6.820493560336449 19.3448017180893 0  -7.057195654427464 19.68114486653879 0  -7.187586440441057 18.77726403490336 0  -7.791593078599879 18.54599122482703 0  -6.592752993625586 27.0081937892183 0  -7.430190099546123 27.11343484130367 0  -6.828640844232294 27.34466251672432 0  -7.064455317103179 27.68114399875385 0  -7.194372382773062 26.77690317143772 0  -7.796119660381942 26.54568692086542 0  -8.275521717389921 19.09640882617495 0  -8.033589075555593 18.82118601681179 0  -8.395719102299298 18.2730203356754 0  -8.637666917477949 18.54824316460935 0  -9 17.99999999998495 0  -8.278233052168158 27.09630846370423 0  -8.037207381312854 26.82099879012483 0  -8.397983657752285 26.27283533799284 0  -8.639024160767528 26.54815258732836 0  -9 25.99999999995395 0  -8.274434362645422 15.90891898892903 0  -8.032390173038266 16.18596422335668 0  -8.395280853837761 16.73147959378761 0  -8.6373098854934 16.45444489777881 0  -9 16.99999999998883 0  -5.776171052111961 30.10472749721035 0  -6.01633333881122 29.8276911733128 0  -5.655039188334656 29.28184380961902 0  -5.414859017219469 29.55929621780031 0  -5.053227222071896 29.00884126099658 0  -8.273423950416207 12.9089155750517 0  -8.031041603920068 13.18597783060071 0  -8.394436112824966 13.73152576275032 0  -8.636803790236746 13.45446208047212 0  -9 13.99999999999401 0  -8.272482980510356 10.09669015410329 0  -8.029540175823501 9.821501536557342 0  -8.393192483287235 9.273154621391848 0  -8.636150357788264 9.548343313041444 0  -9 8.99999999999857 0  -8.270513222018511 4.096525719546286 0  -8.026921954448268 3.821259269362208 0  -8.391576287485019 3.272976161317408 0  -8.635175506608617 3.548244483264587 0  -9 2.999999999998668 0  -8.271420579063475 6.908850908965158 0  -8.028368180015436 7.185895227951143 0  -8.392763873728319 7.731474187156926 0  -8.635801326573302 7.454430857046575 0  -9 7.999999999999485 0  -8.284618572082508 45.90873496206798 0  -8.045973013605019 46.18577273087004 0  -8.403771210979864 46.73143156408249 0  -8.64240163506064 46.4543947016321 0  -9 46.99999999997333 0  -8.28563967400682 48.90888907733974 0  -8.047337314573255 49.18592882589464 0  -8.404626803921575 49.73145853451894 0  -8.642913879018757 49.45443168166103 0  -9 49.99999999997949 0  -5.795952922960311 43.10483452740901 0  -6.034637392137739 42.82766504662843 0  -5.6755565911894 42.28154692074322 0  -5.436856656785364 42.55918083114116 0  -5.077424914929466 42.0084837577736 0  -5.762128593759802 23.92725275528121 0  -6.00853135782425 24.19403317239021 0  -5.650364810481928 24.73692146476614 0  -6.254867942252454 24.46084257544376 0  -5.404005081852134 24.47056063949939 0  -5.045974589686972 25.00880701844775 0  -8.291363989119533 52.0861532397069 0  -8.048469658403555 51.81931944801976 0  -8.402676851184905 51.27627965703147 0  -7.805512404234845 51.55251060701042 0  -8.645588930815981 51.54311290900511 0  -9 50.99999999998153 0  -5.783655596856538 38.09448528903613 0  -6.027665938567372 37.82573291247954 0  -5.670070666571609 37.28482326910228 0  -6.271741807429097 37.55701229546472 0  -5.426040378782145 37.55407730918557 0  -5.068082596784794 37.00808972489619 0  -5.778833094535683 34.9271667977235 0  -6.023970895833082 35.19388402487194 0  -5.667664206261896 35.7366624346381 0  -6.269042654022594 35.46062923979625 0  -5.422563681160254 35.4704268235423 0  -5.066407398576709 36.00841234383969 0  -7.909835899678152 50.50428441482514 0  -7.857660653926546 51.02840864987705 0  -8.454983492813415 50.75211890960144 0  -6.164906961993032 36.50874367677073 0  -6.218334355256093 37.03282279385711 0  -5.616514188461588 36.75998596925574 0  -6.216963439590989 35.98462999098933 0  -5.615721404762963 36.25989187124911 0  -6.011806565975762 25.26957457494165 0  -6.133317649035802 24.86522817928259 0  -5.528926782980331 25.14080659595854 0  -8.039007183215551 25.74899518440631 0  -7.917540774082263 26.14734076628849 0  -8.519531910674605 25.87449902535004 0  -6.974929546820814 34.3823569755522 0  -6.621894534676049 34.92154269292634 0  -6.875046174762652 35.24522133299998 0  -7.228092038734123 34.70610817585899 0  -7.481176181867223 35.02984374289409 0  -7.104957729490793 52.63053565215004 0  -7.455142847397662 52.09157008498526 0  -7.204089589656969 51.76802839842904 0  -6.853913934704241 52.30702063800015 0  -6.602790563314343 51.9835312232977 0  -6.979001866845364 38.63049714437295 0  -6.62546312273115 38.09380552221 0  -6.8775810504635 37.76839776783423 0  -7.231110007208246 38.3051663746381 0  -7.48329614816968 37.97981692227156 0  -6.964431527288978 23.38240449369667 0  -6.609559172454522 23.92165390508315 0  -6.864018652599732 24.24537237107201 0  -7.218902539469789 23.70618453228893 0  -7.473295749996399 24.02993976469492 0  -7.892856276211691 17.50414664263592 0  -7.842211578179684 18.025082102865 0  -8.446493232467295 17.7520491977724 0  -7.841644692735691 16.98357784926865 0  -8.446363101876836 17.25208663866708 0  -7.888239077922091 8.504243453139507 0  -7.837375569620948 9.025278651255618 0  -8.444182903259996 8.752122680455768 0  -7.932564834638898 2.41928361439507 0  -7.85789403074395 2.98261959724165 0  -8.466342474724494 2.709654281631932 0  -7.836820572463126 7.983595587169364 0  -8.444055588727304 8.252118737974156 0  -7.859479933172667 49.98362677965166 0  -8.454851965821188 50.25215584845593 0  -6.083691191801038 41.60168686440938 0  -6.17856101094661 42.07613285803713 0  -5.5
[...]
<PointData  Vectors="f_27"> 
<DataArray  type="Float64"  Name="f_27"  NumberOfComponents="3" format="ascii">0.0000000000000000e+00 0.0000000000000000e+00 0.0000000000000000e+00  3.2993604281908015e-06 -7.9867532852917703e-03 0.0000000000000000e+00  0.0000000000000000e+00 0.0000000000000000e+00 0.0000000000000000e+00  0.0000000000000000e+00 0.0000000000000000e+00 0.0000000000000000e+00  -1.0598917088820428e-05 -1.1184361158336041e-02 0.0000000000000000e+00  3.1398780853952686e-06 -1.1508425010355634e-02 0.0000000000000000e+00  0.0000000000000000e+00 0.0000000000000000e+00 0.0000000000000000e+00  1.5319170680622935e-05 -8.1317655688273541e-03 0.0000000000000000e+00  0.0000000000000000e+00 0.0000000000000000e+00 0.0000000000000000e+00  0.0000000000000000e+00 0.0000000000000000e+00 0.0000000000000000e+00  4.1570080261509336e-05 -1.1159527763770374e-02 0.0000000000000000e+00  2.7998132237036102e-05 -1.1556023985984876e-02 0.0000000000000000e+00  0.0000000000000000e+00 0.0000000000000000e+00 0.0000000000000000e+00  1.4761063520426876e-05 -7.9496722361899579e-03 0.0000000000000000e+00  0.0000000000000000e+00 0.0000000000000000e+00 0.0000000000000000e+00  0.0000000000000000e+00 0.0000000000000000e+00 0.0000000000000000e+00  4.0803445320965557e-05 -1.1117386544656709e-02 0.0000000000000000e+00  2.8271041796083163e-05 -1.1514746836476901e-02 0.0000000000000000e+00  0.0000000000000000e+00 0.0000000000000000e+00 0.0000000000000000e+00  4.7520549882994020e-06 -8.3499793190596524e-03 0.0000000000000000e+00  0.0000000000000000e+00 0.0000000000000000e+00 0.0000000000000000e+00  0.0000000000000000e+00 0.0000000000000000e+00 0.0000000000000000e+00  1.1619603931893636e-06 -1.1165781910367961e-02 0.0000000000000000e+00  9.7494452308369424e-06 -1.1546087691960756e-02 0.0000000000000000e+00  0.0000000000000000e+00 0.0000000000000000e+00 0.0000000000000000e+00  1.2180801931450553e-05 -8.2622942336288037e-03 0.0000000000000000e+00  3.7786355558765617e-05 -1.1066375231576206e-02 0.0000000000000000e+00  2.4789917823464812e-05 -1.1446226188136165e-02 0.0000000000000000e+00  0.0000000000000000e+00 0.0000000000000000e+00 0.0000000000000000e+00  0.0000000000000000e+00 0.0000000000000000e+00 0.0000000000000000e+00  0.0000000000000000e+00 0.0000000000000000e+00 0.0000000000000000e+00  1.1664629662218736e-05 -8.2485938408422971e-03 0.0000000000000000e+00  0.0000000000000000e+00 0.0000000000000000e+00 0.0000000000000000e+00  0.0000000000000000e+00 0.0000000000000000e+00 0.0000000000000000e+00  2.0056259714732456e-05 -1.1170412905749143e-02 0.0000000000000000e+00  1.9085565602217793e-05 -1.1475409140945674e-02 0.0000000000000000e+00  0.0000000000000000e+00 0.0000000000000000e+00 0.0000000000000000e+00  1.0545925462371390e-05 -7.9078893934974616e-03 0.0000000000000000e+00  -3.6962562627583122e-06 -1.1096609531913867e-02 0.0000000000000000e+00  8.4419195676913050e-06 -1.1487242227542788e-02 0.0000000000000000e+00  0.0000000000000000e+00 0.0000000000000000e+00 0.0000000000000000e+00  0.0000000000000000e+00 0.0000000000000000e+00 0.0000000000000000e+00  0.0000000000000000e+00 0.0000000000000000e+00 0.0000000000000000e+00  1.4917485512898929e-05 -8.0524704765316500e-03 0.0000000000000000e+00  0.0000000000000000e+00 0.0000000000000000e+00 0.0000000000000000e+00  0.0000000000000000e+00 0.0000000000000000e+00 0.0000000000000000e+00  4.0774339688295549e-06 -1.1224012568834565e-02 0.0000000000000000e+00  1.2520709681069086e-05 -1.1513375345487822e-02 0.0000000000000000e+00  0.0000000000000000e+00 0.0000000000000000e+00 0.0000000000000000e+00  2.1716359375016887e-05 -8.5639354282857766e-03 0.0000000000000000e+00  6.5779299444196467e-06 -1.1101700470326152e-02 0.0000000000000000e+00  2.0043844435443859e-05 -1.1462725570192102e-02 0.0000000000000000e+00  0.0000000000000000e+00 0.0000000000000000e+00 0.0000000000000000e+00  0.0000000000000000e+00 0.0000000000000000e+00 0.0000000000000000e+00  0.0000000000000000e+00 0.0000000000000000e+00 0.0000000000000000e+00  3.7276236587138173e-06 -8.5667346129488266e-03 0.0000000000000000e+00  2.4316502718088101e-05 -1.1100915266607570e-02 0.0000000000000000e+00  1.3383476849517292e-05 -1.1458317059484861e-02 0.0000000000000000e+00  0.0000000000000000e+00 0.0000000000000000e+00 0.0000000000000000e+00  0.0000000000000000e+00 0.0000000000000000e+00 0.0000000000000000e+00  2.6397178437739978e-05 -1.1811541845711860e-02 0.0000000000000000e+00  2.8648999633176729e-05 -1.1820293175226064e-02 0.0000000000000000e+00  2.5157324791844007e-05 -1.1821131174103926e-02 0.0000000000000000e+00  2.3651873607998921e-05 -1.1821373237932992e-02 0.0000000000000000e+00  2.6921140499691774e-05 -1.1820085493229793e-02 0.0000000000000000e+00  2.1501422073287805e-05 -1.1778181459795232e-02 0.0000000000000000e+00  3.4198915333603381e-05 -1.1784867909360430e-02 0.0000000000000000e+00  3.1623492420624667e-05 -1.1779819454142720e-02 0.0000000000000000e+00  3.4524026680821117e-05 -1.1795346253602066e-02 0.0000000000000000e+00  3.3840838010311224e-05 -1.1789794659211202e-02 0.0000000000000000e+00  3.0752426389035461e-05 -1.1792028556804751e-02 0.0000000000000000e+00  2.4286282658265996e-05 -1.1748399364040703e-02 0.0000000000000000e+00  2.5688568050051721e-05 -1.1797625993278485e-02 0.0000000000000000e+00  2.3086519741180675e-05 -1.1803635134746597e-02 0.0000000000000000e+00  2.2930505484757505e-05 -1.1808363234200816e-02 0.0000000000000000e+00  2.0717116782864847e-05 -1.1811602329457006e-02 0.0000000000000000e+00  2.4570014411860750e-05 -1.1801952425882525e-02 0.0000000000000000e+00  2.0173950700824991e-05 -1.1756056848441871e-02 0.0000000000000000e+00  2.6634396891446567e-05 -1.1917186159494523e-02 0.0000000000000000e+00  2.3420235867452180e-05 -1.1924707812320910e-02 0.0000000000000000e+00  2.5073567459634314e-05 -1.1928376352168988e-02 0.0000000000000000e+00  2.5778790306068580e-05 -1.1930103540422503e-02 0.0000000000000000e+00  2.3708266972529144e-05 -1.1925182287270743e-02 0.0000000000000000e+00  1.8301713135964130e-05 -1.1883875943902946e-02 0.0000000000000000e+00  2.2501116900104441e-05 -1.1846566101861845e-02 0.0000000000000000e+00  2.9519305703820358e-05 -1.1842738575075977e-02 0.0000000000000000e+00  2.2650517083216162e-05 -1.1859831003498354e-02 0.0000000000000000e+00  2.2513269888446413e-05 -1.1851583034929948e-02 0.0000000000000000e+00  2.6331888307855485e-05 -1.1853570618228476e-02 0.0000000000000000e+00  2.4726253348462926e-05 -1.1807516300695032e-02 0.0000000000000000e+00  3.1280017599760027e-05 -1.1931993403301634e-02 0.0000000000000000e+00  2.9547648358737636e-05 -1.1934266697735025e-02 0.0000000000000000e+00  3.0709059648427087e-05 -1.1939075783938286e-02 0.0000000000000000e+00  2.9126800301528317e-05 -1.1937339337921410e-02 0.0000000000000000e+00  2.9859851502976741e-05 -1.1936633940326744e-02 0.0000000000000000e+00  3.1918972384797839e-05 -1.1896500786193764e-02 0.0000000000000000e+00  3.3400639027645739e-05 -1.1911284720410815e-02 0.0000000000000000e+00  3.1528341271251283e-05 -1.1914348146268895e-02 0.0000000000000000e+00  3.1475407741335385e-05 -1.1918253717112673e-02 0.0000000000000000e+00  2.9857760317546724e-05 -1.1916940045902741e-02 0.0000000000000000e+00  3.3926157598972941e-05 -1.1916974158695838e-02 0.0000000000000000e+00  3.7855227616546606e-05 -1.1870368166198133e-02 0.0000000000000000e+00  2.6838938989179247e-05 -1.1897444625192275e-02 0.0000000000000000e+00  2.4802261101228628e-05 -1.1905101351105290e-02 0.0000000000000000e+00  2.5800867890692914e-05 -1.1908768543748725e-02 0.0000000000000000e+00  2.6866169451535696e-05 -1.1910610557431154e-02 0.0000000000000000e+00  2.4439070634827788e-05 -1.1904458995275983e-02 0.0000000000000000e+00  1.9693803978970437e-05 -1.1860032103594240e-02 0.0000000000000000e+00  3.2856299321608608e-05 -1.1890418831433160e-02 0.0000000000000000e+00  3.0397427622236941e-05 -1.1884961897299604e-02 0.0000000000000000e+00  3.3222858162735644e-05 -1.1900527786062596e-02 0.0000000000000000e+00  3.2613373038992574e-05 -1.1894766244239735e-02 0.0000000000000000e+00  2.9371182132848155e-05 -1.1897443969737324e-02 0.0000000000000000e+00  2.3034528130029296e-05 -1.1853739114467927e-02 0.0000000000000000e+00  4.0911680191440175e-05 -1.1878357002990952e-02 0.0000000000000000e+00  3.1837657179159358e-05 -1.1877976272502158e-02 0.0000000000000000e+00  3.7548384399797197e-05 -1.1892702193827320e-02 0.0000000000000000e+00  3.1207892504827721e-05 -1.1883768939719130e-02 0.0000000000000000e+00  3.6704240548772605e-05 -1.1890470304400590e-02 0.0000000000000000e+00  3.8412520059301210e-05 -1.1842753742593862e-02 0.0000000000000000e+00  3.6357283118306208e-05 -1.1853875574526605e-02 0.0000000000000000e+00  3.1451991822894831e-05 -1.1864574334235819e-02 0.0000000000000000e+00  3.5343319832477658e-05 -1.1866852555568916e-02 0.0000000000000000e+00  3.1031191337315791e-05 -1.1862077105069323e-02 0.0000000000000000e+00  3.1662291332654028e-05 -1.1865354973480659e-02 0.0000000000000000e+00  3.2082613481560930e-05 -1.1824572475762716e-02 0.0000000000000000e+00  2.1593673098658006e-05 -1.1136215934281237e-02 0.0000000000000000e+00  3.3635925784723668e-05 -1.1770645196885548e-02 0.0000000000000000e+00  4.2233262144785534e-05 -1.1266860774122303e-02 0.0000000000000000e+00  2.6119917371823405e-05 -8.0117906198082737e-03 0.0000000000000000e+00  0.0000000000000000e+00 0.0000000000000000e+00 0.0000000000000000e+00  2.3493046622069476e-05 -1.1120851618232466e-02 0.0000000000000000e+00  2.8889659653683972e-05 -1.1747393211402196e-02 0.0000000000000000e+00  3.3104510366504009e-05 -1.1247100657670445e-02 0.0000000000000000e+00  2.1649713651570783e-05 -7.9828808988642221e-03 0.0000000000000000e+00  0.0000000000000000e+00 0.0000000000000000e+00 0.0000000000000000e+00  2.3531361137877251e-05 -1.1156018545843823e-02 0.0000000000000000e+00  1.8559790406567220e-05 -1.1774134847793062e-02 0.0000000000000000e+00  9.4347662851500200e-06 -1.1343420826334853e-02 0.0000000000000000e+00  2.9542183795983855e-06 -7.9390177917761616e-03 0.0000000000000000e+00  0.0000000000000000e+00 0.0000000000000000e+00 0.0000000000000000e+00  3.2813502088478675e-05 -1.1101717173153988e-02 0.0000000000000000e+00  4.0593719373053777e-05 -1.1730273246258010e-02 0.0000000000000000e+00  1.3198050537291653e-05 -1.1249296128732978e-02 0.0000000000000000e+00  1.1277803667714228e-05 -7.9899763925107264e-03 0.0000000000000000e+00  0.0000000000000000e+00 0.0000000000000000e+00 0.0000000000000000e+00  2.3878834744485533e-05 -1.1158535338741664e-02 0.0000000000000000e+00  1.9481787664324374e-05 -1.1783288423116023e-02 0.0000000000000000e+00  1.1802241958761207e-05 -1.1286442968332831e-02 0.0000000000000000e+00  1.0030974570824742e-05 -8.0213444198715365e-03 0.0000000000000000e+00  0.0000000000000000e+00 0.0000000000000000e+00 0.0000000000000000e+00  2.7087672575841260e-05 -1.1165097904776874e-02 0.0000000000000000e+00  3.5385894169391254e-05 -1.1794059058815407e-02 0.0000000000000000e+00  4.2759784682524674e-05 -1.1289999038746069e-02 0.0000000000000000e+00  2.7876724307170284e-05 -8.0367417277865255e-03 0.0000000000000000e+00  0.0000000000000000e+00 0.0000000000000000e+00 0.0000000000000000e+00  2.7214662659308814e-05 -1.1200519767279524e-02 0.0000000000000000e+00  3.2724197175498253e-05 -1.1812310931136693e-02 0.0000000000000000e+00  3.8234024402528670e-05 -1.1384765092906309e-02 0.0000000000000000e+00  3.0204980717427963e-05 -7.9808739205993844e-03 0.0000000000000000e+00  0.0000000000000000e+00 0.0000000000000000e+00 0.0000000000000000e+00  1.8352866163948010e-05 -1.1191597912148165e-02 0.0000000000000000e+00  1.4231219157147923e-05 -1.1801827133136317e-02 0.0000000000000000e+00  6.5486091213813772e-06 -1.1369029087345994e-02 0.0000000000000000e+00  9.4033911614175577e-07 -7.9676149213064127e-03 0.0000000000000000e+00  0.0000000000000000e+00 0.0000000000000000e+00 0.0000000000000000e+00  2.4767371524267492e-05 -1.1049543340216577e-02 0.0000000000000000e+00  1.9944377397795287e-05 -1.1677285393596831e-02 0.0000000000000000e+00  1.2702352359697080e-05 -1.1185069748753197e-02 0.0000000000000000e+00  1.0413439878732072e-05 -7.9118517255783172e-03 0.0000000000000000e+00  0.0000000000000000e+00 0.0000000000000000e+00 0.0000000000000000e+00  2.4377894554756124e-05 -1.1047184781311222e-02 0.0000000000000000e+00  1.9754715795178763e-05 -1.1667590234946372e-02 0.0000000000000000e+00  1.0896529442744370e-05 -1.1241241346382188e-02 0.0000000000000000e+00  4.0073766452450007e-06 -7.8304558578047179e-03 0.0000000000000000e+00  0.0000000000000000e+00 0.0000000000000000e+00 0.0000000000000000e+00  2.9925943623480314e-05 -1.1070276994232683e-02 0.0000000000000000e+00  3.7069558986402305e-05 -1.1698298564727315e-02 0.0000000000000000e+00  5.6154014257451451e-06 -1.1216025917469627e-02 0.0000000000000000e+00  9.1030664833786837e-06 -7.9556090862026984e-03 0.0000000000000000e+00  0.0000000000000000e+00 0.0000000000000000e+00 0.0000000000000000e+00  3.2034608786161109e-05 -1.1172262643866695e-02 0.0000000000000000e+00  4.6684135588331350e-05 -1.1763698740576907e-02 0.0000000000000000e+00  3.2231800185873254e-05 -1.1233020116663568e-02 0.0000000000000000e+00  3.3813349331168826e-05 -1.1828523916399915e-02 0.0000000000000000e+00  2.2426404238254661e-05 -7.9897841746189215e-03 0.0000000000000000e+00  0.0000000000000000e+00 0.0000000000000000e+00 0.0000000000000000e+00  2.5831768382221427e-05 -1.1076191356478670e-02 0.0000000000000000e+00  3.5692154893977185e-05 -1.1669300279786207e-02 0.0000000000000000e+00  4.2492617459286763e-05 -1.1163712056594971e-02 0.0000000000000000e+00  3.7551165239431709e-05 -1.1732520178890534e-02 0.0000000000000000e+00  2.5972790981261966e-05 -7.9263561980464723e-03 0.0000000000000000e+00  0.0000000000000000e+00 0.0000000000000000e+00 0.0000000000000000e+00  2.9638607250860236e-05 -1.1126809324872184e-02 0.0000000000000000e+00  3.2963219845329735e-05 -1.1712284796345481e-02 0.0000000000000000e+00  1.6728329799636332e-06 -1.1227598762219184e-02 0.0000000000000000e+00  1.9210280273424424e-05 -1.1779497687987202e-02 0.0000000000000000e+00  8.5136540452768065e-06 -7.9991271870273276e-03 0.0000000000000000e+00  0.0000000000000000e+00 0.0000000000000000e+00 0.0000000000000000e+00  4.1236085244582073e-05 -1.1152991854745649e-02 0.0000000000000000e+00  5.6328739325205610e-05 -1.1725361685332140e-02 0.0000000000000000e+00  3.9009600246702425e-05 -1.1274791736326674e-02 0.0000000000000000e+00  3.9224168062219390e-05 -1.1797484630609553e-02 0.0000000000000000e+00  3.2574499254374492e-05 -7.8747561592132677e-03 0.0000000000000000e+00  0.0000000000000000e+00 0.0000000000000000e+00 0.0000000000000000e+00  3.0311115633019712e-05 -1.1293510341510419e-02 0.0000000000000000e+00  3.8685834838213763e-05 -1.1734652621874302e-02 0.0000000000000000e+00  4.6142580517851529e-05 -1.0882786404704317e-02 0.0000000000000000e+00  3.8450326790354425e-06 -1.1340993931652993e-02 0.0000000000000000e+00  9.2688202648538735e-06 -1.1780585335922926e-02 0.0000000000000000e+00  -2.6867645623711911e-05 -1.0932005277566298e-02 0.0000000000000000e+00  3.1058825462214431e-05 -1.1740860046277477e-02 0.0000000000000000e+00  -5.8802494577942037e-06 -7.5745855283947611e-03 0.0000000000000000e+00  1.5221184967849943e-05 -1.1499155513879049e-02 0.0000000000000000e+00  2.7637019340202704e-05 -1.1825804860392754e-02 0.0000000000000000e+00  9.6178687160617050e-06 -1.1030531111998634e-02 0.0000000000000000e+00  2.9318951455071366e-05 -1.1452661669742348e-02 0.0000000000000000e+00  3.0453742413655812e-05 -1.1815952677586937e-02 0.0000000000000000e+00  3.5677787650832222e-05 -1.1028587355960857e-02 0.0000000000000000e+00  3.2768577262759853e-05 -1.1843734399924625e-02 0.0000000000000000e+00  3.8402508647056551e-05 -1.1829681746789293e-02 0.0000000000000000e+00  3.4180235018967864e-05 -1.1843844703126400e-02 0.0000000000000000e+00  3.3623057634098686e-05 -1.1845669962585102e-02 0.0000000000000000e+00  3.0987019632542242e-05 -1.1833929558782380e-02 0.0000000000000000e+00  3.2648240796631051e-05 -1.1772273560209883e-02 0.0000000000000000e+00  2.9278876492740627e-05 -1.1757599610003468e-02 0.0000000000000000e+00  3.4544978923576667e-05 -1.1782395723558856e-02 0.0000000000000000e+00  3.5199648583247005e-05 -1.1783090911690939e-02 0.0000000000000000e+00  3.5400921057137745e-05 -1.1766225950764309e-02 0.0000000000000000e+00  2.5833456692246721e-05 -1.1830183057494973e-02 0.0000000000000000e+00  3.1340695077357130e-05 -1.1815275634800016e-02 0.0000000000000000e+00  2.4237126314552664e-05 -1.1830181851469215e-02 0.0000000000000000e+00  2.5247110437537994e-05 -1.1833598213693237e-02 0.0000000000000000e+00  2.1847709073874848e-05 -1.1823754132958371e-02 0.0000000000000000e+00  2.8210226404080880e-05 -1.1877102125692584e-02 0.0000000000000000e+00  3.2478464999363440e-05 -1.1865602755416281e-02 0.0000000000000000e+00  2.8537008045803439e-05 -1.1876666352501850e-02 0.0000000000000000e+00  2.8780714529072814e-05 -1.1878263730731855e-02 0.0000000000000000e+00  2.4899066565187580e-05 -1.1860817225178281e-02 0.0000000000000000e+00  2.9716191860588006e-05 -1.1399152936063941e-02 0.0000000000000000e+00  3.8756119174583884e-05 -1.1841171187463589e-02 0.0000000000000000e+00  4.6458504241136558e-05 -1.0990221080821478e-02 0.0000000000000000e+00  1.9695945767940604e-05 -1.1799161527644099e-02 0.0000000000000000e+00  1.3121647176924369e-05 -7.6209092699392293e-03 0.0000000000000000e+00  2.8071201577654521e-05 -1.1426423851598999e-02 0.0000000000000000e+00  3.7638265934395450e-05 -1.1866506770693347e-02 0.0000000000000000e+00  4.6149069378954528e-05 -1.1014985187994718e-02 0.0000000000000000e+00  2.5668810695199386e-05 -1.1525973891108050e-02 0.0000000000000000e+00  3.1104775565109041e-05 -1.1847533693029384e-02 0.0000000000000000e+00  1.8692491613749374e-05 -7.7342658001581964e-03 0.0000000000000000e+00  1.6586430407410084e-05 -1.1826195350370015e-02 0.0000000000000000e+00  1.2201021243886677e-05 -7.6439895996255848e-03 0.0000000000000000e+00  2.0781198969191949e-05 -1.1692801909605892e-02 0.0000000000000000e+00  1.3844793821788761e-05 -7.5266795436434095e-03 0.0000000000000000e+00  -5.5130497997887752e-06 -1.1390344378571346e-02 0.0000000000000000e+00  1.1339471845437465e-05 -1.1777538174923628e-02 0.0000000000000000e+00  -2.5039223860801033e-05 -1.0935892380373274e-02 0.0000000000000000e+00  2.3701203091625659e-05 -1.1874094001842386e-02 0.0000000000000000e+00  2.7709143047880529e-05 -1.1879691031046882e-02 0.0000000000000000e+00  2.4445638090579720e-05 -1.1877478432856216e-02 0.0000000000000000e+00  3.4964805250643068e-05 -1.1786917219827005e-02 0.0000000000000000e+00  3.6325645945997769e-05 -1.1788651006264779e-02 0.0000000000000000e+00  3.4269719819595687e-05 -1.1787077505011942e-02 0.0000000000000000e+00  2.0379499708045304e-05 -1.1833347692813263e-02 0.0000000000000000e+00  1.9103070575447718e-05 -1.1833363019399745e-02 0.0000000000000000e+00  2.2255199590996846e-05 -1.1834930171028680e-02 0.0000000000000000e+00  2.9615987542203784e-05 -1.1843102988441130e-02 0.0000000000000000e+00  3.2792310122699013e-05 -1.1844987382886167e-02 0.0000000000000000e+00  3.1282033844909937e-05 -1.1845032630089021e-02 0.0000000000000000e+00  1.7680518955250384e-06 -1.1445671100909428e-02 0.0000000000000000e+00  1.6809284917660189e-05 -1.1803942989879026e-02 0.0000000000000000e+00  -1.7684083547498203e-05 -1.1001450215468020e-02 0.0000000000000000e+00  2.7788813056751651e-05 -1.1777900438689745e-02 0.0000000000000000e+00  3.1290929737952371e-05 -1.1767194371214077e-02 0.0000000000000000e+00  2.7039073635655970e-05 -1.1822027088746568e-02 0.0000000000000000e+00  3.5325567352840630e-05 -1.1480529873117221e-02 0.0000000000000000e+00  2.8922462135712993e-05 -1.1724331656656794e-02 0.0000000000000000e+00  3.3575801452725938e-05 -1.1779048913509525e-02 0.0000000000000000e+00  2.5040818892835175e-05 -1.1762973974115335e-02 0.0000000000000000e+00  2.3418899822967485e-05 -1.1747355476116429e-02 0.0000000000000000e+00  2.2962424739003996e-05 -1.1805500149852951e-02 0.0