<?xml version="1.0"?>
<VTKFile type="UnstructuredGrid"  version="0.1"  >
<UnstructuredGrid>
<Piece  NumberOfPoints="2690" NumberOfCells="4864">
<Points>
<DataArray  type="Float64"  NumberOfComponents="3"  format="ascii">-5.023389584273222 22.00512849947418 0  -5.6223628278593 21.26768197330633 0  -5.022919757691942 21.50555049756581 0  -5.022387342184414 21.00516504923652 0  -5.622816663153846 21.76777308498799 0  -6.222266697369167 21.52958788294842 0  -9 21.99999999996945 0  -8.400289540662467 21.26357205558545 0  -9 21.49999999997139 0  -9 20.99999999997333 0  -8.40037030160693 21.76356601838606 0  -7.800664201423568 21.5271187692094 0  -9 32.9999999999446 0  -8.402065927437201 32.26355538807899 0  -9 32.49999999994358 0  -9 31.99999999994255 0  -8.402146752165088 32.7635568347748 0  -7.804216824955865 32.52710172105074 0  -5.035183276139628 33.00554820944343 0  -5.549684717048662 32.30184822018376 0  -5.034689534260003 32.50628314235178 0  -5.03413714626317 32.00537324770416 0  -5.550151508285291 32.8019891600852 0  -6.065143073294617 32.59763567453874 0  -5.057846567955007 54.0053062199561 0  -5.652876283581086 54.74255552995611 0  -5.65243034612571 54.2427753387829 0  -6.246967761385491 54.47947139434597 0  -5.05835275667054 54.50568362657901 0  -5.058834408721935 55.00535754661929 0  -9 54.99999999998974 0  -8.477631039198117 54.29702033725892 0  -9 54.49999999998872 0  -9 53.99999999998769 0  -8.477700786905562 54.79699888336406 0  -7.955345904179381 54.59400455614355 0  -9 39.99999999995897 0  -8.403437932277157 40.73853931209199 0  -8.403357124275548 40.23854031884908 0  -7.806791217854762 40.47706564864001 0  -9 40.49999999996 0  -9 40.99999999996102 0  -5.043775931299974 41.00492047593337 0  -5.613263694895023 40.27311025734431 0  -5.043287792446321 40.50571109112497 0  -5.042773434695516 40.00554159159643 0  -5.61371891448153 40.77302651828226 0  -6.183698958547028 40.54023705034022 0  -9 55.99999999999179 0  -8.430462718431857 56.74428917755883 0  -8.430393586207883 56.24427574338065 0  -7.860859629262849 56.48855089701192 0  -9 56.49999999999282 0  -9 56.99999999999384 0  -5.059989753194057 56.00507444585006 0  -5.630236388337378 56.74840734815282 0  -5.629792448058268 56.24838634189073 0  -6.199534033880302 56.49106758605272 0  -5.060527750823108 56.50585335305875 0  -5.061007336057437 57.00537245474812 0  -7.455450108406729 43.00290245505336 0  -6.617382848718381 43.11270301239801 0  -7.219847929430205 43.34073156792171 0  -6.984288582039025 43.67856508540461 0  -6.852943361121019 42.77484251392391 0  -6.250361218990647 42.54678285437267 0  -6.594419484174557 49.00546946497062 0  -7.431149262956389 48.89536306088652 0  -6.829599208098517 48.66760147579513 0  -7.06482383075184 48.32971763120418 0  -7.195927661135246 49.23321983992729 0  -7.797360323021701 49.46100951241886 0  -6.592451924105498 46.00513940460511 0  -7.429867309653011 45.89515103296383 0  -6.827827227780745 45.667213066244 0  -7.063246578398292 45.32931315418549 0  -7.194451214366171 46.23304753203241 0  -7.796375579125146 46.46093617750351 0  -6.567014559950694 7.005329665534418 0  -7.413278993378088 6.895299528243943 0  -6.804880500362027 6.667458539910995 0  -7.042790468706184 6.329588786190175 0  -7.175372317366503 7.233168746882677 0  -7.783655605179534 7.46100356820531 0  -7.449999895267028 30.00286981692729 0  -6.608974069948792 30.1126311460298 0  -7.213566528927378 30.34062115099448 0  -6.977176484062451 30.67835514121358 0  -6.84536623251913 29.7748629105091 0  -6.240656529965853 29.54688360028075 0  -6.565108545743509 4.0050762097006 0  -7.412134939211752 4.111482342238136 0  -6.803549116584931 4.341961523414482 0  -7.041948752671412 4.67882986166857 0  -7.173737973698479 3.774603290338232 0  -7.782431575328272 3.544164158202254 0  -6.568954631352923 10.00537727600776 0  -7.414633990327189 10.11168353318742 0  -6.80702332877811 10.34219521178252 0  -7.045050160147205 10.67901320786018 0  -7.176604217676451 9.774870443865133 0  -7.784328509256214 9.544357728900041 0  -6.570899062885215 13.00542225984721 0  -7.415810441548691 12.89537417169072 0  -6.808382972265692 12.66755289173441 0  -7.045910652350773 12.32968537036206 0  -7.178285071503137 13.23324980390923 0  -7.785597439408485 13.46106175971383 0  -6.572850414883386 16.00550527911297 0  -7.417083502439368 15.89539809126336 0  -6.810142667834802 15.66764189251958 0  -7.047479242767398 15.32976529894284 0  -7.179749893755726 16.23325496553759 0  -7.786574648745193 16.46103574604836 0  -6.574816212118298 19.00492938600496 0  -7.418458437702856 19.11133482124866 0  -6.812317440416631 19.34166024942365 0  -7.049774136936569 19.67842204600245 0  -7.180998624262519 18.77455745155712 0  -7.787257062200521 18.54417108895679 0  -6.580036707360385 27.00474457569419 0  -7.421862846315531 27.11121881860104 0  -6.817024315225549 27.34157898857152 0  -7.053969013865472 27.67842073113615 0  -7.184915733179199 26.77434810629425 0  -7.78986929362677 26.54399468194455 0  -8.272840836293662 19.09535329716671 0  -8.030067143250797 18.81975408143547 0  -8.393584028564089 18.27209984736266 0  -8.636366458216084 18.54769904964975 0  -9 17.99999999998495 0  -8.274406308427274 27.0952949781928 0  -8.032155783615373 26.81964545488352 0  -8.394890558337289 26.27199266441674 0  -8.637149711646959 26.54764655202975 0  -9 25.99999999995395 0  -8.27221438482861 15.90773234925937 0  -8.029376428597274 16.18438696504427 0  -8.393331520181597 16.73050618862488 0  -8.636160755416249 16.45385769156692 0  -9 16.99999999998883 0  -5.757110564948445 30.10016971911111 0  -5.998864145914492 29.82351982923353 0  -5.635829602137452 29.27720541958406 0  -5.394062661141327 29.55409579500613 0  -5.030857022997418 29.00511941834324 0  -8.27162889505583 12.90773052728401 0  -8.028595187072696 13.18439506174025 0  -8.392842591469979 13.73053311061943 0  -8.635867710499353 13.45386774828786 0  -9 13.99999999999401 0  -8.271082489201843 10.09551662070671 0  -8.027723317782449 9.819937394767969 0  -8.392120407791246 9.272178004613934 0  -8.635488260908142 9.547757284288343 0  -9 8.99999999999857 0  -8.269937189596146 4.095421415295323 0  -8.026200693863396 3.819797087267178 0  -8.391180154356473 3.272074622008763 0  -8.634921226055674 3.547700044246492 0  -9 2.999999999998668 0  -8.270465423598115 6.907693170515119 0  -8.02704263263581 7.184347346139032 0  -8.391871480817285 7.73050333070296 0  -8.635285545334481 7.453849716192055 0  -9 7.999999999999485 0  -8.278092162839076 45.90762476529747 0  -8.037215822507225 46.18427455850262 0  -8.398231979226582 46.73047730469541 0  -8.639099547730977 46.45382803251687 0  -9 46.99999999997333 0  -8.278681484740769 48.90771330232619 0  -8.038002653213615 49.1843642449747 0  -8.398724624225695 49.73049272322231 0  -8.639394731106348 49.45384923572044 0  -9 49.99999999997949 0  -5.768519714883616 43.10023089730937 0  -6.009420747173242 42.82350398307627 0  -5.647661316360384 42.27703277367668 0  -5.406748004617451 42.55402779263911 0  -5.044811835214318 42.00491387905117 0  -5.746993571635477 23.92265209271408 0  -5.994388880345284 24.18983526870172 0  -5.634162284868292 24.73228467211726 0  -6.241746090327221 24.45703495807279 0  -5.386788934009246 24.46534470619848 0  -5.026666727846953 25.00510516503978 0  -8.28398585330285 52.08511014251559 0  -8.038616721472774 51.81789636265794 0  -8.39656048029698 51.27536248941631 0  -7.793211642844212 51.55069698703705 0  -8.641939792026982 51.5425759499114 0  -9 50.99999999998153 0  -5.759421519543745 38.08993393360905 0  -6.005435373149179 37.82160910849673 0  -5.64553851186322 37.28030577412634 0  -6.251487186979672 37.5533037676735 0  -5.399509950124026 37.54891983479841 0  -5.039429205035402 37.00468543853516 0  -5.756641237067851 34.92260163581604 0  -6.003305265269899 35.18974837119617 0  -5.644152058380657 35.73213458319313 0  -6.2499312492059 35.45691119692125 0  -5.397506734558617 35.46526656033247 0  -5.038466088036088 36.00488081809568 0  -7.898851307159307 50.50255315372429 0  -7.846023863128956 51.02663148658718 0  -8.449463194421362 50.75126310698433 0  -6.144465355972292 36.50506542313968 0  -6.197982108724645 37.02915249102975 0  -5.591950177654369 36.75578518556807 0  -6.19719208414037 35.98095638796652 0  -5.591495143031787 36.25573313658619 0  -5.997048120505884 25.26552957686691 0  -6.119385463917934 24.86129396243566 0  -5.511868576096263 25.13625310252751 0  -8.034169718081051 25.74765676093747 0  -7.912006391309188 26.14582556484854 0  -8.517101304812938 25.87382919737254 0  -6.961205482907034 34.37964011223254 0  -6.60551550319399 34.91830380404367 0  -6.860270238702579 35.24234899025782 0  -7.215966287050694 34.70372698259755 0  -7.470681942512986 35.02780484723787 0  -7.085007305379174 52.62782470109202 0  -7.439056986978041 52.08928783803533 0  -7.185513980386955 51.76532184840726 0  -6.831469814958683 52.30387390719435 0  -6.577886976917362 51.9799380460199 0  -6.96355371504514 38.62780324050296 0  -6.607573069744894 38.09058282658778 0  -6.861731748012762 37.76553700831663 0  -7.217706499458312 38.30280154295487 0  -7.471904327650565 37.97778925676499 0  -6.955142229506238 23.37966796873129 0  -6.598391736268213 23.91836861034181 0  -6.853902460945263 24.24243669177604 0  -7.210659258831561 23.70377149602954 0  -7.466131369723467 24.02786065852119 0  -7.889116538491816 17.50240144316243 0  -7.838179396876496 18.02329386381276 0  -8.444595768498621 17.7511867186211 0  -7.83785270837927 16.98172139664637 0  -8.444520786212843 17.25120843072913 0  -7.886439571071436 8.502458099898005 0  -7.835376971707208 9.023408393036378 0  -8.443256679448265 8.751229610373342 0  -7.932013657827453 2.417731884370481 0  -7.857207427976557 2.980941498811835 0  -8.466041912721582 2.708873201445665 0  -7.83505465928223 7.981732181191809 0  -8.443182739099575 8.25122731683779 0  -7.848113119707033 49.98178436651144 0  -8.449387874313468 50.25128439629025 0  -6.059630906586554 41.59807450782938 0  -6.155007368062066 42.07244999
[...]
<PointData  Vectors="f_27"> 
<DataArray  type="Float64"  Name="f_27"  NumberOfComponents="3" format="ascii">0.0000000000000000e+00 0.0000000000000000e+00 0.0000000000000000e+00  2.1429084007714236e-06 -7.7325939316118114e-03 0.0000000000000000e+00  0.0000000000000000e+00 0.0000000000000000e+00 0.0000000000000000e+00  0.0000000000000000e+00 0.0000000000000000e+00 0.0000000000000000e+00  -1.3334020929586558e-05 -1.0817967432209764e-02 0.0000000000000000e+00  -4.3168093390288557e-07 -1.1132713802508310e-02 0.0000000000000000e+00  0.0000000000000000e+00 0.0000000000000000e+00 0.0000000000000000e+00  9.6995279173418926e-06 -7.8728265507863882e-03 0.0000000000000000e+00  0.0000000000000000e+00 0.0000000000000000e+00 0.0000000000000000e+00  0.0000000000000000e+00 0.0000000000000000e+00 0.0000000000000000e+00  3.3367924626837302e-05 -1.0797198681276323e-02 0.0000000000000000e+00  2.0232466819715738e-05 -1.1179368206638628e-02 0.0000000000000000e+00  0.0000000000000000e+00 0.0000000000000000e+00 0.0000000000000000e+00  8.8569134037232792e-06 -7.7102213307120998e-03 0.0000000000000000e+00  0.0000000000000000e+00 0.0000000000000000e+00 0.0000000000000000e+00  0.0000000000000000e+00 0.0000000000000000e+00 0.0000000000000000e+00  3.2221301279414613e-05 -1.0771542269125464e-02 0.0000000000000000e+00  1.9607260316921052e-05 -1.1154405532789151e-02 0.0000000000000000e+00  0.0000000000000000e+00 0.0000000000000000e+00 0.0000000000000000e+00  1.9140132945140316e-06 -8.0959027344547543e-03 0.0000000000000000e+00  0.0000000000000000e+00 0.0000000000000000e+00 0.0000000000000000e+00  0.0000000000000000e+00 0.0000000000000000e+00 0.0000000000000000e+00  -4.8416020621970186e-06 -1.0816011398052978e-02 0.0000000000000000e+00  3.4802310289392698e-06 -1.1182854478054383e-02 0.0000000000000000e+00  0.0000000000000000e+00 0.0000000000000000e+00 0.0000000000000000e+00  8.6299150998649282e-06 -8.0383402459556028e-03 0.0000000000000000e+00  3.3090027383359865e-05 -1.0756505024104130e-02 0.0000000000000000e+00  1.8574983765312795e-05 -1.1121417062096206e-02 0.0000000000000000e+00  0.0000000000000000e+00 0.0000000000000000e+00 0.0000000000000000e+00  0.0000000000000000e+00 0.0000000000000000e+00 0.0000000000000000e+00  0.0000000000000000e+00 0.0000000000000000e+00 0.0000000000000000e+00  5.4236402977574829e-06 -8.0257082694324983e-03 0.0000000000000000e+00  0.0000000000000000e+00 0.0000000000000000e+00 0.0000000000000000e+00  0.0000000000000000e+00 0.0000000000000000e+00 0.0000000000000000e+00  1.2019458324908041e-05 -1.0852045089144828e-02 0.0000000000000000e+00  1.0734342042062433e-05 -1.1146534645386879e-02 0.0000000000000000e+00  0.0000000000000000e+00 0.0000000000000000e+00 0.0000000000000000e+00  4.9828444532771180e-06 -7.6794930762858656e-03 0.0000000000000000e+00  -1.1718773267191696e-05 -1.0760794658435092e-02 0.0000000000000000e+00  4.4008386809538111e-07 -1.1137659741678234e-02 0.0000000000000000e+00  0.0000000000000000e+00 0.0000000000000000e+00 0.0000000000000000e+00  0.0000000000000000e+00 0.0000000000000000e+00 0.0000000000000000e+00  0.0000000000000000e+00 0.0000000000000000e+00 0.0000000000000000e+00  1.2528484074492897e-05 -7.8216624347376643e-03 0.0000000000000000e+00  0.0000000000000000e+00 0.0000000000000000e+00 0.0000000000000000e+00  0.0000000000000000e+00 0.0000000000000000e+00 0.0000000000000000e+00  -1.2366529606205634e-08 -1.0882276025597201e-02 0.0000000000000000e+00  7.5367801091867040e-06 -1.1163191764942440e-02 0.0000000000000000e+00  0.0000000000000000e+00 0.0000000000000000e+00 0.0000000000000000e+00  1.4864388881110992e-05 -8.3326664895900411e-03 0.0000000000000000e+00  -1.4875009498786028e-06 -1.0788166794658702e-02 0.0000000000000000e+00  1.1353868745697038e-05 -1.1137406598972402e-02 0.0000000000000000e+00  0.0000000000000000e+00 0.0000000000000000e+00 0.0000000000000000e+00  0.0000000000000000e+00 0.0000000000000000e+00 0.0000000000000000e+00  0.0000000000000000e+00 0.0000000000000000e+00 0.0000000000000000e+00  -1.2700974935766073e-06 -8.3338663741677563e-03 0.0000000000000000e+00  1.8213006950726991e-05 -1.0787440613537577e-02 0.0000000000000000e+00  6.4741716035439707e-06 -1.1133570940010192e-02 0.0000000000000000e+00  0.0000000000000000e+00 0.0000000000000000e+00 0.0000000000000000e+00  0.0000000000000000e+00 0.0000000000000000e+00 0.0000000000000000e+00  1.4393276547966014e-05 -1.1453178132261732e-02 0.0000000000000000e+00  1.4782394166279631e-05 -1.1460884529984066e-02 0.0000000000000000e+00  1.2849575537110805e-05 -1.1462307760250258e-02 0.0000000000000000e+00  1.1877656951037176e-05 -1.1462752082393314e-02 0.0000000000000000e+00  1.3942080964736271e-05 -1.1461252868958246e-02 0.0000000000000000e+00  7.8946512916691802e-06 -1.1419518955805782e-02 0.0000000000000000e+00  1.8881792814106534e-05 -1.1436927077470521e-02 0.0000000000000000e+00  1.7290885384795951e-05 -1.1430848068346350e-02 0.0000000000000000e+00  1.9084633722108178e-05 -1.1445783784222677e-02 0.0000000000000000e+00  1.8788025102600666e-05 -1.1439766781685191e-02 0.0000000000000000e+00  1.6382120583506122e-05 -1.1443432298011974e-02 0.0000000000000000e+00  1.0897786758759083e-05 -1.1401447921138357e-02 0.0000000000000000e+00  1.1177068598314241e-05 -1.1443764696721974e-02 0.0000000000000000e+00  1.0625107854950234e-05 -1.1449854694255220e-02 0.0000000000000000e+00  9.7263170566983986e-06 -1.1454022470620013e-02 0.0000000000000000e+00  9.1431649981046622e-06 -1.1456711239064688e-02 0.0000000000000000e+00  1.0931496231444942e-05 -1.1448414801956358e-02 0.0000000000000000e+00  7.4942156559772023e-06 -1.1405183194949542e-02 0.0000000000000000e+00  1.3009314734733669e-05 -1.1508112285175157e-02 0.0000000000000000e+00  1.0983897131708768e-05 -1.1514691604379667e-02 0.0000000000000000e+00  1.2052981687497605e-05 -1.1518038802206053e-02 0.0000000000000000e+00  1.2954048374553891e-05 -1.1519088128850689e-02 0.0000000000000000e+00  1.0889276719660143e-05 -1.1515525518689828e-02 0.0000000000000000e+00  6.3463642327781605e-06 -1.1476198258719839e-02 0.0000000000000000e+00  1.0682635309742294e-05 -1.1469638560041491e-02 0.0000000000000000e+00  1.5866519280828634e-05 -1.1466888210938482e-02 0.0000000000000000e+00  1.0499202220409624e-05 -1.1482900275589828e-02 0.0000000000000000e+00  1.0951444985586131e-05 -1.1475456846239029e-02 0.0000000000000000e+00  1.3603896996055534e-05 -1.1477093666911159e-02 0.0000000000000000e+00  1.1632674958641185e-05 -1.1432571363039485e-02 0.0000000000000000e+00  1.6635643182078932e-05 -1.1516309851129686e-02 0.0000000000000000e+00  1.6602461764102624e-05 -1.1520782815959488e-02 0.0000000000000000e+00  1.6918741268335511e-05 -1.1524387690370392e-02 0.0000000000000000e+00  1.5855133279265875e-05 -1.1523431354923161e-02 0.0000000000000000e+00  1.6597180369259879e-05 -1.1522699708340464e-02 0.0000000000000000e+00  1.9658499515097925e-05 -1.1485252508089858e-02 0.0000000000000000e+00  2.0142115310496975e-05 -1.1504763764636149e-02 0.0000000000000000e+00  1.9348562907690632e-05 -1.1508528787779042e-02 0.0000000000000000e+00  1.9041085932240876e-05 -1.1512219334932249e-02 0.0000000000000000e+00  1.7560567966196879e-05 -1.1511522402367356e-02 0.0000000000000000e+00  2.1116613715744730e-05 -1.1510635140958569e-02 0.0000000000000000e+00  2.5558467679088004e-05 -1.1465620931634104e-02 0.0000000000000000e+00  1.3690424601756828e-05 -1.1496605143627820e-02 0.0000000000000000e+00  1.2636152939672749e-05 -1.1503126146647473e-02 0.0000000000000000e+00  1.3197565839958155e-05 -1.1506618880187350e-02 0.0000000000000000e+00  1.4373910773187980e-05 -1.1507797262148609e-02 0.0000000000000000e+00  1.1953305454017029e-05 -1.1503014174811211e-02 0.0000000000000000e+00  7.8004959100822044e-06 -1.1460601011375332e-02 0.0000000000000000e+00  1.8246719153026800e-05 -1.1493973132598504e-02 0.0000000000000000e+00  1.6796107093949912e-05 -1.1487529891848874e-02 0.0000000000000000e+00  1.8570477692423483e-05 -1.1502601977405652e-02 0.0000000000000000e+00  1.8410618806097704e-05 -1.1496470009080165e-02 0.0000000000000000e+00  1.5696336716350755e-05 -1.1500230103176771e-02 0.0000000000000000e+00  1.0290569792785086e-05 -1.1458093628107548e-02 0.0000000000000000e+00  2.5890154976974302e-05 -1.1487819341532647e-02 0.0000000000000000e+00  1.9383306435692882e-05 -1.1485613470309819e-02 0.0000000000000000e+00  2.3789252911672015e-05 -1.1500801414876987e-02 0.0000000000000000e+00  1.9502514062152191e-05 -1.1492376150228358e-02 0.0000000000000000e+00  2.3127501158063542e-05 -1.1497841059104360e-02 0.0000000000000000e+00  2.5851671290421959e-05 -1.1450272717652333e-02 0.0000000000000000e+00  2.1122186345491523e-05 -1.1471991533397523e-02 0.0000000000000000e+00  1.8834818270901479e-05 -1.1482862168428651e-02 0.0000000000000000e+00  2.1331992225963369e-05 -1.1484877158810157e-02 0.0000000000000000e+00  1.8941270054009432e-05 -1.1480872600795363e-02 0.0000000000000000e+00  1.8424917019505014e-05 -1.1483488771026323e-02 0.0000000000000000e+00  2.0295741294736371e-05 -1.1443906535480025e-02 0.0000000000000000e+00  1.1511263266745940e-05 -1.0770048694876926e-02 0.0000000000000000e+00  2.2389871735542532e-05 -1.1380612308663602e-02 0.0000000000000000e+00  3.0955885378054269e-05 -1.0892695142674264e-02 0.0000000000000000e+00  1.8719182580262295e-05 -7.7592333660269691e-03 0.0000000000000000e+00  0.0000000000000000e+00 0.0000000000000000e+00 0.0000000000000000e+00  1.3508079077018369e-05 -1.0767992993013901e-02 0.0000000000000000e+00  1.8154792456255719e-05 -1.1370329216513425e-02 0.0000000000000000e+00  2.2968551329393164e-05 -1.0885213149784759e-02 0.0000000000000000e+00  1.4678703628361582e-05 -7.7440524055701621e-03 0.0000000000000000e+00  0.0000000000000000e+00 0.0000000000000000e+00 0.0000000000000000e+00  1.2136396071738585e-05 -1.0786296085263486e-02 0.0000000000000000e+00  6.7756907188552769e-06 -1.1381355638119931e-02 0.0000000000000000e+00  -1.8161411576261458e-06 -1.0965265767797619e-02 0.0000000000000000e+00  -4.6393280632658121e-06 -7.6874993021486754e-03 0.0000000000000000e+00  0.0000000000000000e+00 0.0000000000000000e+00 0.0000000000000000e+00  2.0080180868877896e-05 -1.0753695999927862e-02 0.0000000000000000e+00  2.1406797737668801e-05 -1.1359687306252175e-02 0.0000000000000000e+00  3.0054512694744210e-06 -1.0884292540203920e-02 0.0000000000000000e+00  4.2099419159100334e-06 -7.7470644791189812e-03 0.0000000000000000e+00  0.0000000000000000e+00 0.0000000000000000e+00 0.0000000000000000e+00  1.3102035034504106e-05 -1.0785309762859463e-02 0.0000000000000000e+00  8.2930888504294062e-06 -1.1386792816703071e-02 0.0000000000000000e+00  1.0746523468796310e-06 -1.0906991047895427e-02 0.0000000000000000e+00  2.5567766453033950e-06 -7.7634824261927924e-03 0.0000000000000000e+00  0.0000000000000000e+00 0.0000000000000000e+00 0.0000000000000000e+00  1.6322942999141525e-05 -1.0787735290598486e-02 0.0000000000000000e+00  2.3942518543296920e-05 -1.1392648809767984e-02 0.0000000000000000e+00  3.1360091687815405e-05 -1.0905177547158367e-02 0.0000000000000000e+00  2.0089910288808714e-05 -7.7730509239156888e-03 0.0000000000000000e+00  0.0000000000000000e+00 0.0000000000000000e+00 0.0000000000000000e+00  1.6504751519347878e-05 -1.0816310791689678e-02 0.0000000000000000e+00  2.1411885080641948e-05 -1.1405027982951291e-02 0.0000000000000000e+00  2.7112400497376708e-05 -1.0992209662745896e-02 0.0000000000000000e+00  2.2568242123137510e-05 -7.7137374584511764e-03 0.0000000000000000e+00  0.0000000000000000e+00 0.0000000000000000e+00 0.0000000000000000e+00  7.6714850016039686e-06 -1.0809835497147693e-02 0.0000000000000000e+00  3.2110593574325860e-06 -1.1397398789823592e-02 0.0000000000000000e+00  -4.1284425123213137e-06 -1.0979983723883046e-02 0.0000000000000000e+00  -6.2352687066349740e-06 -7.7042344729074588e-03 0.0000000000000000e+00  0.0000000000000000e+00 0.0000000000000000e+00 0.0000000000000000e+00  1.4050275761791272e-05 -1.0726815040881533e-02 0.0000000000000000e+00  8.3554680839765801e-06 -1.1330210075865975e-02 0.0000000000000000e+00  1.3777144191562660e-06 -1.0852659520910113e-02 0.0000000000000000e+00  2.8048581512904793e-06 -7.7031873601652494e-03 0.0000000000000000e+00  0.0000000000000000e+00 0.0000000000000000e+00 0.0000000000000000e+00  1.2472298603360419e-05 -1.0727392499624566e-02 0.0000000000000000e+00  7.3142307262109858e-06 -1.1324013202837678e-02 0.0000000000000000e+00  -1.0632664739013094e-06 -1.0910395139148595e-02 0.0000000000000000e+00  -4.1194046109044443e-06 -7.6276040355725203e-03 0.0000000000000000e+00  0.0000000000000000e+00 0.0000000000000000e+00 0.0000000000000000e+00  1.6705283318953269e-05 -1.0739192239612219e-02 0.0000000000000000e+00  1.7171715821306881e-05 -1.1343674494262258e-02 0.0000000000000000e+00  -4.6225289778103841e-06 -1.0866379719302191e-02 0.0000000000000000e+00  1.5204956316008147e-06 -7.7296170698517835e-03 0.0000000000000000e+00  0.0000000000000000e+00 0.0000000000000000e+00 0.0000000000000000e+00  1.7649552597715132e-05 -1.0813645902532271e-02 0.0000000000000000e+00  2.8171250413849550e-05 -1.1381048658313617e-02 0.0000000000000000e+00  2.2403379343092578e-05 -1.0875546859357897e-02 0.0000000000000000e+00  2.0639423134256166e-05 -1.1443828481734948e-02 0.0000000000000000e+00  1.4889250071960561e-05 -7.7559041398082831e-03 0.0000000000000000e+00  0.0000000000000000e+00 0.0000000000000000e+00 0.0000000000000000e+00  1.5264375958692094e-05 -1.0758293414312605e-02 0.0000000000000000e+00  2.4344246233519708e-05 -1.1328607823962566e-02 0.0000000000000000e+00  3.1321384991696326e-05 -1.0836925751215544e-02 0.0000000000000000e+00  2.5343668514019452e-05 -1.1389366249222509e-02 0.0000000000000000e+00  1.8603462377485439e-05 -7.7215069317764810e-03 0.0000000000000000e+00  0.0000000000000000e+00 0.0000000000000000e+00 0.0000000000000000e+00  1.4952622227651370e-05 -1.0786588592745087e-02 0.0000000000000000e+00  1.3541190205239191e-05 -1.1352126165061030e-02 0.0000000000000000e+00  -6.9087064488198162e-06 -1.0872765240863832e-02 0.0000000000000000e+00  6.0671880271210927e-06 -1.1416048150753056e-02 0.0000000000000000e+00  4.5359203996463353e-07 -7.7630733146513498e-03 0.0000000000000000e+00  0.0000000000000000e+00 0.0000000000000000e+00 0.0000000000000000e+00  2.6398712450941183e-05 -1.0810851085559603e-02 0.0000000000000000e+00  3.7020836285419761e-05 -1.1360204993358169e-02 0.0000000000000000e+00  2.9722817766798089e-05 -1.0929610915749814e-02 0.0000000000000000e+00  2.5868642458263744e-05 -1.1429202243894947e-02 0.0000000000000000e+00  2.5080101111378687e-05 -7.6624556004937019e-03 0.0000000000000000e+00  0.0000000000000000e+00 0.0000000000000000e+00 0.0000000000000000e+00  1.8544489334069173e-05 -1.0965397276823064e-02 0.0000000000000000e+00  2.6435031003782454e-05 -1.1390612682332209e-02 0.0000000000000000e+00  3.5287045893602716e-05 -1.0570646904363887e-02 0.0000000000000000e+00  8.4878268186063819e-07 -1.0991940563396030e-02 0.0000000000000000e+00  2.9984455227422947e-07 -1.1416068636366121e-02 0.0000000000000000e+00  -2.4652657646111587e-05 -1.0598255826849937e-02 0.0000000000000000e+00  2.1494718767447966e-05 -1.1376999572073743e-02 0.0000000000000000e+00  -1.4758464037475252e-06 -7.3555835057724879e-03 0.0000000000000000e+00  1.1028410928823806e-05 -1.1129170424054386e-02 0.0000000000000000e+00  1.7791032626303666e-05 -1.1442993687358882e-02 0.0000000000000000e+00  1.1423472433460351e-05 -1.0675946591573136e-02 0.0000000000000000e+00  1.9330736571919027e-05 -1.1085675698476263e-02 0.0000000000000000e+00  1.9609564138071166e-05 -1.1435401400237206e-02 0.0000000000000000e+00  2.6160537889338627e-05 -1.0678386301267762e-02 0.0000000000000000e+00  2.0051620385462134e-05 -1.1472989009307771e-02 0.0000000000000000e+00  2.3232643507775777e-05 -1.1459483382500951e-02 0.0000000000000000e+00  2.1296491066665342e-05 -1.1473226208013814e-02 0.0000000000000000e+00  2.0713746382144769e-05 -1.1475093669028692e-02 0.0000000000000000e+00  1.9319217877908528e-05 -1.1464152400848103e-02 0.0000000000000000e+00  1.9571570010742704e-05 -1.1430938768687178e-02 0.0000000000000000e+00  1.7055922785808648e-05 -1.1414813339767476e-02 0.0000000000000000e+00  2.1423862643408046e-05 -1.1439419516707841e-02 0.0000000000000000e+00  2.1414375488571919e-05 -1.1441240900138384e-02 0.0000000000000000e+00  2.1959134791080886e-05 -1.1425112942225190e-02 0.0000000000000000e+00  1.3104084672820169e-05 -1.1465712891491585e-02 0.0000000000000000e+00  1.6127586131009966e-05 -1.1451203135511529e-02 0.0000000000000000e+00  1.1411376392507951e-05 -1.1465515221755108e-02 0.0000000000000000e+00  1.2364526594900029e-05 -1.1468663407655927e-02 0.0000000000000000e+00  1.0237479271135852e-05 -1.1458771183347221e-02 0.0000000000000000e+00  1.5944853518068876e-05 -1.1490271643134641e-02 0.0000000000000000e+00  1.7717414404845176e-05 -1.1478862927500109e-02 0.0000000000000000e+00  1.5830199759315984e-05 -1.1489780524891750e-02 0.0000000000000000e+00  1.6262690362555108e-05 -1.1491689496784209e-02 0.0000000000000000e+00  1.3521303942902002e-05 -1.1475205729212281e-02 0.0000000000000000e+00  1.8124969324907749e-05 -1.1021796522049657e-02 0.0000000000000000e+00  2.6403733975016711e-05 -1.1447817261645628e-02 0.0000000000000000e+00  3.5345254504903339e-05 -1.0628208492773752e-02 0.0000000000000000e+00  7.6755017975818296e-06 -1.1406705774421310e-02 0.0000000000000000e+00  5.6245020817685337e-06 -7.3767470267740451e-03 0.0000000000000000e+00  1.6748040488491733e-05 -1.1037233470286262e-02 0.0000000000000000e+00  2.5510203600350068e-05 -1.1461323014804072e-02 0.0000000000000000e+00  3.5007298382013432e-05 -1.0641753910620650e-02 0.0000000000000000e+00  1.4311930440137304e-05 -1.1128593215759123e-02 0.0000000000000000e+00  1.9503256471049696e-05 -1.1438216612938746e-02 0.0000000000000000e+00  1.1517322710824378e-05 -7.4732612345302686e-03 0.0000000000000000e+00  5.1176598402493209e-06 -1.1421848000869062e-02 0.0000000000000000e+00  4.8807549919877597e-06 -7.3896620440096960e-03 0.0000000000000000e+00  8.2491298280112754e-06 -1.1349564855906298e-02 0.0000000000000000e+00  6.0817994782424394e-06 -7.3251738229406227e-03 0.0000000000000000e+00  -9.6036054991810605e-06 -1.1044317180962882e-02 0.0000000000000000e+00  2.6918548599514092e-07 -1.1417467266194995e-02 0.0000000000000000e+00  -2.6181714925376026e-05 -1.0607632121048458e-02 0.0000000000000000e+00  1.2413497252053194e-05 -1.1488116823517389e-02 0.0000000000000000e+00  1.5886500645963895e-05 -1.1492965952136941e-02 0.0000000000000000e+00  1.2577079301011795e-05 -1.1491308888191051e-02 0.0000000000000000e+00  2.1948275519984371e-05 -1.1442773627722516e-02 0.0000000000000000e+00  2.3372797000142833e-05 -1.1443804959326424e-02 0.0000000000000000e+00  2.1244828019572540e-05 -1.1443853692336648e-02 0.0000000000000000e+00  9.3618689991823433e-06 -1.1467742579897586e-02 0.0000000000000000e+00  7.6959142141832958e-06 -1.1468152520153945e-02 0.0000000000000000e+00  1.0483214318042398e-05 -1.1469420826939891e-02 0.0000000000000000e+00  1.8477052466522757e-05 -1.1473288546852822e-02 0.0000000000000000e+00  2.1200470255641322e-05 -1.1474892055454843e-02 0.0000000000000000e+00  1.9423150398950936e-05 -1.1474945732483904e-02 0.0000000000000000e+00  -2.4607821701718978e-06 -1.1082256758169415e-02 0.0000000000000000e+00  6.5491803122872251e-06 -1.1427865843388818e-02 0.0000000000000000e+00  -1.6449395222764856e-05 -1.0657362633969316e-02 0.0000000000000000e+00  1.5711846532047988e-05 -1.1420074606515186e-02 0.0000000000000000e+00  1.6098199010385818e-05 -1.1409286260135001e-02 0.0000000000000000e+00  1.4318580710912156e-05 -1.1462085931214743e-02 0.0000000000000000e+00  2.2141686104822950e-05 -1.1141258755793559e-02 0.0000000000000000e+00  1.5440828994067590e-05 -1.1377637650221742e-02 0.0000000000000000e+00  1.9153876983959121e-05 -1.1429783902468614e-02 0.0000000000000000e+00  1.3923196646322309e-05 -1.1410321813243600e-02 0.0000000000000000e+00  1.1522475752278202e-05 -1.1396627988583744e-02 0.0000000000000000e+00  1.1312531892274566e-05 -1.1451628390