<?xml version="1.0"?>
<VTKFile type="UnstructuredGrid"  version="0.1"  >
<UnstructuredGrid>
<Piece  NumberOfPoints="2690" NumberOfCells="4864">
<Points>
<DataArray  type="Float64"  NumberOfComponents="3"  format="ascii">-5.020312559231951 22.00444837777965 0  -5.619831382991801 21.26699531942056 0  -5.019903896246405 21.50481460324869 0  -5.01944230730309 21.00448087808658 0  -5.620224994877246 21.76707417583026 0  -6.220158904647602 21.52897989773173 0  -9 21.99999999996945 0  -8.399840291604049 21.26342998366435 0  -9 21.49999999997139 0  -9 20.99999999997333 0  -8.399910347064424 21.76342473907634 0  -7.799754387443939 21.52683798108021 0  -9 32.9999999999446 0  -8.401381758297671 32.26341550726199 0  -9 32.49999999994358 0  -9 31.99999999994255 0  -8.401451877618728 32.76341675393861 0  -7.80283722060566 32.52682315877704 0  -5.030547059023176 33.00481272560641 0  -5.545732917925089 32.30112058481916 0  -5.030117462131055 32.50545016913259 0  -5.029639518588762 32.00466134774948 0  -5.546137588720996 32.80124279438267 0  -6.061749907620721 32.59698364108235 0  -5.050201604288716 54.00460424562453 0  -5.646299687014237 54.74188620183204 0  -5.645913047091843 54.24207684695826 0  -6.241585569245792 54.47887933383608 0  -5.050639458763559 54.50493038999328 0  -5.05105831400208 55.00464786393661 0  -9 54.99999999998974 0  -8.476613762068226 54.29690027311641 0  -9 54.49999999998872 0  -9 53.99999999998769 0  -8.476674173345272 54.79688169681228 0  -7.953300104969148 54.59376926278217 0  -9 39.99999999995897 0  -8.402571979130704 40.73840160616705 0  -8.402501876882535 40.23840246965302 0  -7.805070510796877 40.47679196002709 0  -9 40.49999999996 0  -9 40.99999999996102 0  -5.038001486773946 41.00426884186097 0  -5.608404670989385 40.27240941496827 0  -5.03757681836166 40.50495441010636 0  -5.037131359637613 40.00480818219846 0  -5.608799525728894 40.77233671642148 0  -6.179631201822341 40.53962771227496 0  -9 55.99999999999179 0  -8.429304983240769 56.74416152377874 0  -8.429245092986728 56.24414990000196 0  -7.858552962976214 56.48829926722421 0  -9 56.49999999999282 0  -9 56.99999999999384 0  -5.052058991552742 56.00440346925001 0  -5.623368055306324 56.74773454440034 0  -5.62298287889325 56.24771634421939 0  -6.193855141361442 56.49048281611066 0  -5.052524311273181 56.50507762644265 0  -5.052941340929111 57.00466079939287 0  -7.453081218806347 43.00251761515535 0  -6.613718725423454 43.11210193750727 0  -7.217095936171106 43.34028147072175 0  -6.981147875431268 43.67804917825255 0  -6.849667916727332 42.77431087587662 0  -6.246189021266753 42.5461042790522 0  -6.590206633648749 49.00474374830948 0  -7.428408108259021 48.89489418093999 0  -6.825825581065884 48.66694615940263 0  -7.061483311759332 48.32913485461213 0  -7.192752919482473 49.23268202601007 0  -7.795233799021449 49.46065440073015 0  -6.588499401437243 46.00445759419892 0  -7.427295806149925 45.89471044648698 0  -6.824287803184301 45.66660950249405 0  -7.060114367152491 45.32878432819528 0  -7.191472082687629 46.23253269178417 0  -7.794379652492687 46.46059086887281 0  -6.566424065989533 7.00462343453044 0  -7.412899956882472 6.894839755020693 0  -6.80437391096945 6.666823090751484 0  -7.042361884522117 6.329023942433404 0  -7.174914859419688 7.232638460878626 0  -7.783340926299248 7.460649761509471 0  -7.44835290983536 30.00248930771447 0  -6.606423763673542 30.11203965894665 0  -7.211646442967129 30.34018573494335 0  -6.97497757832118 30.67786714729752 0  -6.843094537828919 29.7743285837042 0  -6.23777009656688 29.54619173050084 0  -6.56476771746011 4.004403657490212 0  -7.411905760862162 4.111043526369292 0  -6.803216937482883 4.341348852273202 0  -7.041630435860938 4.678279292440857 0  -7.173494586584074 3.774103762624864 0  -7.782277235006955 3.543833223509124 0  -6.568109224782001 10.00466487591898 0  -7.414076950167866 10.11121808257969 0  -6.806235218774863 10.34155159092894 0  -7.044324737733368 10.67843834115167 0  -7.175984913054341 9.774335565311372 0  -7.783925430284198 9.544001182262189 0  -6.569798099137741 13.00470372493313 0  -7.415098808075218 12.89490448769864 0  -6.807416164229321 12.66690490498585 0  -7.045072137005347 12.32910769521661 0  -7.177444900964794 13.23270875781399 0  -7.785027634917777 13.46070022850178 0  -6.57149270189228 16.00477575980999 0  -7.416204231412729 15.89492520560903 0  -6.808944326476452 15.66698211942125 0  -7.046434299462681 15.32917702734958 0  -7.178716776986703 16.23271319328462 0  -7.785876025162207 16.46067761089086 0  -6.573197626532814 19.00427594647648 0  -7.417396737863033 19.11091537213071 0  -6.810830373134675 19.34108720501148 0  -7.048424593165578 19.67792529205418 0  -7.179799866039827 18.77406380371904 0  -7.78646792394081 18.54383912260986 0  -6.577727599454302 27.00411549797863 0  -7.420350798261969 27.11081463183281 0  -6.814914956778165 27.34101657449744 0  -7.052064997225192 27.67792399930809 0  -7.183198577470121 26.77388208402087 0  -7.788734338905691 26.54368601733184 0  -8.272353106023729 19.09516076394669 0  -8.029426286542078 18.8194929053666 0  -8.393195380201577 18.2719319689025 0  -8.636129776602605 18.5475998118126 0  -9 17.99999999998495 0  -8.273711461690745 27.09511012208584 0  -8.03123851462907 26.81939861024552 0  -8.394328896880607 26.27183895503365 0  -8.636809341165177 26.54755425018099 0  -9 25.99999999995395 0  -8.271809754619667 15.90751592535973 0  -8.028827197117863 16.18409929952704 0  -8.392976364118548 16.73032866043629 0  -8.635951359525022 16.45375059754753 0  -9 16.99999999998883 0  -5.753652407888496 30.09933841854158 0  -5.995694411521256 29.82275909090528 0  -5.632343815411602 29.27635990332127 0  -5.390289752948717 29.55314777931641 0  -5.026794536704809 29.0044404004856 0  -8.2713013941755 12.90751437068934 0  -8.028148903314628 13.18410636069849 0  -8.39255193367927 13.73035204937413 0  -8.635696953074191 13.45375934062318 0  -9 13.99999999999401 0  -8.270826784706832 10.09530253604832 0  -8.027391593036462 9.819652051058293 0  -8.39192463836099 9.271999843404624 0  -8.635367360213616 9.547650376566859 0  -9 8.99999999999857 0  -8.269831733798831 4.095219935963843 0  -8.026068673158484 3.819530314053877 0  -8.391107649847358 3.271910138836366 0  -8.634874678781236 3.54760071180306 0  -9 2.999999999998668 0  -8.270290774135949 6.907481973072287 0  -8.026800325048855 7.1840649793928 0  -8.391708412134108 7.730326224237305 0  -8.635191273840489 7.453743702803099 0  -9 7.999999999999485 0  -8.27690948992641 45.90742240761945 0  -8.035628905430919 46.18400151372418 0  -8.397228191264382 46.73030341845761 0  -8.638501159787205 46.45372476381565 0  -9 46.99999999997333 0  -8.277420795313642 48.90749910915277 0  -8.036311483353732 49.18407921181447 0  -8.397655436115286 49.73031676201213 0  -8.638757193963645 49.4537431253196 0  -9 49.99999999997949 0  -5.763550060099255 43.09939136756357 0  -6.004852430236953 42.82274522692119 0  -5.642607794629183 42.27620998682669 0  -5.401294255108779 42.55308856676903 0  -5.038900423726395 42.00426232501786 0  -5.74424565040468 23.9218129427441 0  -5.991821137210437 24.18906947825522 0  -5.63122071425575 24.73143833868918 0  -6.239363586981645 24.45634029238524 0  -5.383663808456506 24.46439283868945 0  -5.02315802060261 25.0044288432285 0  -8.282650082240544 52.08491997242468 0  -8.036832766355888 51.81763694745768 0  -8.395452892902293 51.27519533273797 0  -7.790984320525358 51.55036641297116 0  -8.64127903110867 51.54247807961988 0  -9 50.99999999998153 0  -5.755029113877653 38.08910394103392 0  -6.001405906140884 37.82085716250901 0  -5.641091596551614 37.27948243484743 0  -6.247815650520526 37.55262745754576 0  -5.394701553914778 37.54797992810989 0  -5.03423178639575 37.0040640996792 0  -5.752617331024283 34.92176904037424 0  -5.999558141444843 35.18899398959179 0  -5.639889015005415 35.731308109324 0  -6.246465957910383 35.45623287221474 0  -5.392963980820079 35.46432493035816 0  -5.033396539180032 36.00423482861511 0  -7.896861775600097 50.50223768062787 0  -7.843916471679603 51.02630760841649 0  -8.448463413432574 50.75110715706493 0  -6.140759194055985 36.50439405915233 0  -6.194292502320601 37.02848288308128 0  -5.587496627497437 36.7550183917194 0  -6.193607231429517 35.98028589853913 0  -5.587102208452554 36.25497364873356 0  -5.994368402711945 25.26479142848804 0  -6.116855840604408 24.86057606189094 0  -5.508771369730635 25.13542188280408 0  -8.033291301361443 25.74741260798415 0  -7.911001434702505 26.14554917809953 0  -8.51665993557873 25.87370701083866 0  -6.95871659076895 34.37914453631031 0  -6.602545408485371 34.91771303389937 0  -6.857590930020367 35.24182501536905 0  -7.213767347321049 34.70329262772338 0  -7.46877894308281 35.02743291314111 0  -7.081396016059806 52.62733032357828 0  -7.436144745420193 52.08887175864339 0  -7.182150653042989 51.76482847803516 0  -6.827406719241763 52.30330018798923 0  -6.573378169906805 51.97928302660311 0  -6.960753649984936 38.62731177870658 0  -6.604330292352548 38.08999504081495 0  -6.858858745491778 37.76501521050016 0  -7.215276951952344 38.30237015144441 0  -7.469839338463739 37.97741937410982 0  -6.953455232849746 23.37916877615972 0  -6.596363902282993 23.91776933909325 0  -6.852065531169506 24.2419011553254 0  -7.209162276301209 23.7033313084759 0  -7.464830344858575 24.02748137889212 0  -7.888435467945038 17.50208315729101 0  -7.837445297279675 18.02296772772836 0  -8.444250258160121 17.75102942383935 0  -7.83716193037072 16.98138281544166 0  -8.444185220769029 17.25104826691943 0  -7.886110907591571 8.502132407759856 0  -7.835012018854901 9.023067208944791 0  -8.443087515814343 8.751066691613227 0  -7.931912785345543 2.417448786474297 0  -7.857081790279508 2.980635341743121 0  -8.465986900089746 2.70873069772095 0  -7.834732050267879 7.981392253157426 0  -8.443023288936647 8.25106470009989 0  -7.846054125272732 49.98144867205287 0  -8.44839815743703 50.25112561195333 0  -6.055271270211611 41.59741507895475 0  -6.150739885499143 42.071778098753
[...]
<PointData  Vectors="f_27"> 
<DataArray  type="Float64"  Name="f_27"  NumberOfComponents="3" format="ascii">0.0000000000000000e+00 0.0000000000000000e+00 0.0000000000000000e+00  1.9885438201752806e-06 -7.8123690999619506e-03 0.0000000000000000e+00  0.0000000000000000e+00 0.0000000000000000e+00 0.0000000000000000e+00  0.0000000000000000e+00 0.0000000000000000e+00 0.0000000000000000e+00  -1.3970675966373538e-05 -1.0928760476343608e-02 0.0000000000000000e+00  -1.0216379644073313e-06 -1.1247093052520408e-02 0.0000000000000000e+00  0.0000000000000000e+00 0.0000000000000000e+00 0.0000000000000000e+00  8.8840410502355273e-06 -7.9540624331357647e-03 0.0000000000000000e+00  0.0000000000000000e+00 0.0000000000000000e+00 0.0000000000000000e+00  0.0000000000000000e+00 0.0000000000000000e+00 0.0000000000000000e+00  3.2446553313589995e-05 -1.0908368875227243e-02 0.0000000000000000e+00  1.9210765986591010e-05 -1.1294363840475882e-02 0.0000000000000000e+00  0.0000000000000000e+00 0.0000000000000000e+00 0.0000000000000000e+00  7.9778165055531194e-06 -7.7921754255575876e-03 0.0000000000000000e+00  0.0000000000000000e+00 0.0000000000000000e+00 0.0000000000000000e+00  0.0000000000000000e+00 0.0000000000000000e+00 0.0000000000000000e+00  3.1217743836023337e-05 -1.0885115592294346e-02 0.0000000000000000e+00  1.8417481497603050e-05 -1.1271785402515269e-02 0.0000000000000000e+00  0.0000000000000000e+00 0.0000000000000000e+00 0.0000000000000000e+00  1.4618365975646207e-06 -8.1815365899996009e-03 0.0000000000000000e+00  0.0000000000000000e+00 0.0000000000000000e+00 0.0000000000000000e+00  0.0000000000000000e+00 0.0000000000000000e+00 0.0000000000000000e+00  -5.9346643187425502e-06 -1.0929601201294405e-02 0.0000000000000000e+00  2.4696399486045296e-06 -1.1300178106116771e-02 0.0000000000000000e+00  0.0000000000000000e+00 0.0000000000000000e+00 0.0000000000000000e+00  8.1641426552020620e-06 -8.1283750527307280e-03 0.0000000000000000e+00  3.2786868768648635e-05 -1.0876061327431134e-02 0.0000000000000000e+00  1.7810234689438443e-05 -1.1244281128875825e-02 0.0000000000000000e+00  0.0000000000000000e+00 0.0000000000000000e+00 0.0000000000000000e+00  0.0000000000000000e+00 0.0000000000000000e+00 0.0000000000000000e+00  0.0000000000000000e+00 0.0000000000000000e+00 0.0000000000000000e+00  4.4416777670602754e-06 -8.1155502148528656e-03 0.0000000000000000e+00  0.0000000000000000e+00 0.0000000000000000e+00 0.0000000000000000e+00  0.0000000000000000e+00 0.0000000000000000e+00 0.0000000000000000e+00  1.0830141888239620e-05 -1.0971524954104733e-02 0.0000000000000000e+00  9.4784516800981559e-06 -1.1269032409701512e-02 0.0000000000000000e+00  0.0000000000000000e+00 0.0000000000000000e+00 0.0000000000000000e+00  4.1047520207807044e-06 -7.7628576951281822e-03 0.0000000000000000e+00  -1.3252684487208214e-05 -1.0875874528236303e-02 0.0000000000000000e+00  -9.1429885396460710e-07 -1.1256564504910870e-02 0.0000000000000000e+00  0.0000000000000000e+00 0.0000000000000000e+00 0.0000000000000000e+00  0.0000000000000000e+00 0.0000000000000000e+00 0.0000000000000000e+00  0.0000000000000000e+00 0.0000000000000000e+00 0.0000000000000000e+00  1.2308537440115450e-05 -7.9069793208766184e-03 0.0000000000000000e+00  0.0000000000000000e+00 0.0000000000000000e+00 0.0000000000000000e+00  0.0000000000000000e+00 0.0000000000000000e+00 0.0000000000000000e+00  -6.8317723885922884e-07 -1.0998325859366800e-02 0.0000000000000000e+00  6.8237989260733297e-06 -1.1282414978012797e-02 0.0000000000000000e+00  0.0000000000000000e+00 0.0000000000000000e+00 0.0000000000000000e+00  1.3906225163661864e-05 -8.4261809930095029e-03 0.0000000000000000e+00  -2.8779778025229412e-06 -1.0907439557395229e-02 0.0000000000000000e+00  1.0035570280483028e-05 -1.1260356377054370e-02 0.0000000000000000e+00  0.0000000000000000e+00 0.0000000000000000e+00 0.0000000000000000e+00  0.0000000000000000e+00 0.0000000000000000e+00 0.0000000000000000e+00  0.0000000000000000e+00 0.0000000000000000e+00 0.0000000000000000e+00  -2.1474227866747611e-06 -8.4271210007643062e-03 0.0000000000000000e+00  1.7433290851232029e-05 -1.0906750708343892e-02 0.0000000000000000e+00  5.3941461984471824e-06 -1.1256573749526129e-02 0.0000000000000000e+00  0.0000000000000000e+00 0.0000000000000000e+00 0.0000000000000000e+00  0.0000000000000000e+00 0.0000000000000000e+00 0.0000000000000000e+00  1.2528562717901861e-05 -1.1575820317528502e-02 0.0000000000000000e+00  1.2579387618158353e-05 -1.1583447591321586e-02 0.0000000000000000e+00  1.0904190019810060e-05 -1.1585007820100059e-02 0.0000000000000000e+00  1.0015847483849828e-05 -1.1585480807087423e-02 0.0000000000000000e+00  1.1893225048467034e-05 -1.1583947261248418e-02 0.0000000000000000e+00  5.6453515901412302e-06 -1.1541531673119606e-02 0.0000000000000000e+00  1.6513022063681387e-05 -1.1561083750418946e-02 0.0000000000000000e+00  1.5072036734066024e-05 -1.1554725518443516e-02 0.0000000000000000e+00  1.6698865491996439e-05 -1.1569808399773061e-02 0.0000000000000000e+00  1.6460403703855859e-05 -1.1563607090799979e-02 0.0000000000000000e+00  1.4141492617239520e-05 -1.1567570491342312e-02 0.0000000000000000e+00  8.7525591366491075e-06 -1.1525165669396809e-02 0.0000000000000000e+00  8.8270627630877300e-06 -1.1567017961649152e-02 0.0000000000000000e+00  8.6375648964020559e-06 -1.1573244649194379e-02 0.0000000000000000e+00  7.5973594736777442e-06 -1.1577377054164768e-02 0.0000000000000000e+00  7.2980007935463134e-06 -1.1580013566256269e-02 0.0000000000000000e+00  8.7321687622426775e-06 -1.1571811189371449e-02 0.0000000000000000e+00  5.4179107342805843e-06 -1.1528339792439441e-02 0.0000000000000000e+00  1.0833676169905836e-05 -1.1623020608328703e-02 0.0000000000000000e+00  8.9896939973615939e-06 -1.1629553036180079e-02 0.0000000000000000e+00  9.9773955160732139e-06 -1.1632897192203494e-02 0.0000000000000000e+00  1.0922028199148220e-05 -1.1633843748695853e-02 0.0000000000000000e+00  8.8214907305739921e-06 -1.1630455609308862e-02 0.0000000000000000e+00  4.3661310753820667e-06 -1.1590816676114746e-02 0.0000000000000000e+00  8.7875691344387847e-06 -1.1589417671530254e-02 0.0000000000000000e+00  1.3712363220718646e-05 -1.1586816764877694e-02 0.0000000000000000e+00  8.5371001636762591e-06 -1.1602892101431039e-02 0.0000000000000000e+00  9.1018542787349777e-06 -1.1595445887187590e-02 0.0000000000000000e+00  1.1591059929520749e-05 -1.1597098621710586e-02 0.0000000000000000e+00  9.5294711954384207e-06 -1.1552108127513021e-02 0.0000000000000000e+00  1.4302345192368867e-05 -1.1630169903680753e-02 0.0000000000000000e+00  1.4578915862257556e-05 -1.1635133044654472e-02 0.0000000000000000e+00  1.4742630804565270e-05 -1.1638574452526695e-02 0.0000000000000000e+00  1.3762372992024893e-05 -1.1637743026234316e-02 0.0000000000000000e+00  1.4516684322779441e-05 -1.1636997606398965e-02 0.0000000000000000e+00  1.7806268285771422e-05 -1.1599403028018266e-02 0.0000000000000000e+00  1.8125820137423977e-05 -1.1620046794111249e-02 0.0000000000000000e+00  1.7517331012433499e-05 -1.1624016642353829e-02 0.0000000000000000e+00  1.7154124539504427e-05 -1.1627724148369729e-02 0.0000000000000000e+00  1.5680091027411234e-05 -1.1627125845329361e-02 0.0000000000000000e+00  1.9201911352262785e-05 -1.1626062908683951e-02 0.0000000000000000e+00  2.3801201199471080e-05 -1.1580573279882572e-02 0.0000000000000000e+00  1.1614990155504643e-05 -1.1612759393564121e-02 0.0000000000000000e+00  1.0720397239813762e-05 -1.1619199769242609e-02 0.0000000000000000e+00  1.1219917609112662e-05 -1.1622716761049321e-02 0.0000000000000000e+00  1.2429513751921556e-05 -1.1623797902625233e-02 0.0000000000000000e+00  9.9643311671227178e-06 -1.1619173095755116e-02 0.0000000000000000e+00  5.8551858731408838e-06 -1.1576408835797150e-02 0.0000000000000000e+00  1.5978264036080291e-05 -1.1610844797794301e-02 0.0000000000000000e+00  1.4682565107103023e-05 -1.1604124167327031e-02 0.0000000000000000e+00  1.6300422597914311e-05 -1.1619361608364773e-02 0.0000000000000000e+00  1.6211805497433596e-05 -1.1613056651659206e-02 0.0000000000000000e+00  1.3551345748118269e-05 -1.1617066113647193e-02 0.0000000000000000e+00  8.2315781897749933e-06 -1.1574491576102835e-02 0.0000000000000000e+00  2.3655690003172234e-05 -1.1605611715074425e-02 0.0000000000000000e+00  1.7508965647611117e-05 -1.1603026774076616e-02 0.0000000000000000e+00  2.1744970363407604e-05 -1.1618551344190145e-02 0.0000000000000000e+00  1.7760509973673587e-05 -1.1610050484410004e-02 0.0000000000000000e+00  2.1110800743445064e-05 -1.1615425805660084e-02 0.0000000000000000e+00  2.4054965683209999e-05 -1.1567070793827015e-02 0.0000000000000000e+00  1.8759405630580273e-05 -1.1590967659328892e-02 0.0000000000000000e+00  1.6916629700920946e-05 -1.1602047713857531e-02 0.0000000000000000e+00  1.9196011903789563e-05 -1.1604044716981187e-02 0.0000000000000000e+00  1.7124702144196362e-05 -1.1600101177275913e-02 0.0000000000000000e+00  1.6385950712992886e-05 -1.1602667031733693e-02 0.0000000000000000e+00  1.8548714850235707e-05 -1.1562631789701096e-02 0.0000000000000000e+00  9.9376823430701739e-06 -1.0879915790867750e-02 0.0000000000000000e+00  2.0774780227740178e-05 -1.1496621658206627e-02 0.0000000000000000e+00  2.9459683598262087e-05 -1.1003580123374499e-02 0.0000000000000000e+00  1.7711665004780067e-05 -7.8388192335542162e-03 0.0000000000000000e+00  0.0000000000000000e+00 0.0000000000000000e+00 0.0000000000000000e+00  1.1981677240957134e-05 -1.0880146384708113e-02 0.0000000000000000e+00  1.6564943454859405e-05 -1.1488401804250958e-02 0.0000000000000000e+00  2.1557398367249470e-05 -1.0998141314749601e-02 0.0000000000000000e+00  1.3687459330972971e-05 -7.8257985690692207e-03 0.0000000000000000e+00  0.0000000000000000e+00 0.0000000000000000e+00 0.0000000000000000e+00  1.0340179337688880e-05 -1.0895848436167692e-02 0.0000000000000000e+00  4.8354252521159080e-06 -1.1496913929954120e-02 0.0000000000000000e+00  -3.7843598778217145e-06 -1.1076661818813002e-02 0.0000000000000000e+00  -6.0201110530287139e-06 -7.7660440213199846e-03 0.0000000000000000e+00  0.0000000000000000e+00 0.0000000000000000e+00 0.0000000000000000e+00  1.8118636830418275e-05 -1.0866468382376185e-02 0.0000000000000000e+00  1.8340717143409992e-05 -1.1478726244155990e-02 0.0000000000000000e+00  1.2844072628771761e-06 -1.0996592744656572e-02 0.0000000000000000e+00  2.9966325904779647e-06 -7.8280427447565085e-03 0.0000000000000000e+00  0.0000000000000000e+00 0.0000000000000000e+00 0.0000000000000000e+00  1.1429195996198191e-05 -1.0894254542654807e-02 0.0000000000000000e+00  6.4823234865780539e-06 -1.1501827737920554e-02 0.0000000000000000e+00  -7.6579956231857231e-07 -1.1017279756677920e-02 0.0000000000000000e+00  1.2998957090069159e-06 -7.8422112716318489e-03 0.0000000000000000e+00  0.0000000000000000e+00 0.0000000000000000e+00 0.0000000000000000e+00  1.4698619101920851e-05 -1.0895992378903764e-02 0.0000000000000000e+00  2.2312795081836956e-05 -1.1506921373319550e-02 0.0000000000000000e+00  2.9845742415587116e-05 -1.1014454125536859e-02 0.0000000000000000e+00  1.9032578786463140e-05 -7.8509087162185898e-03 0.0000000000000000e+00  0.0000000000000000e+00 0.0000000000000000e+00 0.0000000000000000e+00  1.4882467256175511e-05 -1.0923848593132919e-02 0.0000000000000000e+00  1.9756911599768696e-05 -1.1518474552680005e-02 0.0000000000000000e+00  2.5568660540355607e-05 -1.1101574058027664e-02 0.0000000000000000e+00  2.1563952954394384e-05 -7.7899328026717366e-03 0.0000000000000000e+00  0.0000000000000000e+00 0.0000000000000000e+00 0.0000000000000000e+00  5.9309224517035909e-06 -1.0917692271793516e-02 0.0000000000000000e+00  1.3501258837828327e-06 -1.1511211103695653e-02 0.0000000000000000e+00  -6.0325402964302672e-06 -1.1089751096345709e-02 0.0000000000000000e+00  -7.5683325615167018e-06 -7.7809475651771662e-03 0.0000000000000000e+00  0.0000000000000000e+00 0.0000000000000000e+00 0.0000000000000000e+00  1.2415688708979177e-05 -1.0843485354193938e-02 0.0000000000000000e+00  6.4896096577989548e-06 -1.1452742100146553e-02 0.0000000000000000e+00  -5.4763392280964499e-07 -1.0970072202258938e-02 0.0000000000000000e+00  1.5369522727268745e-06 -7.7896209324610057e-03 0.0000000000000000e+00  0.0000000000000000e+00 0.0000000000000000e+00 0.0000000000000000e+00  1.0608061734224189e-05 -1.0844526031683073e-02 0.0000000000000000e+00  5.2853581448978160e-06 -1.1446981453615404e-02 0.0000000000000000e+00  -3.1273846961961651e-06 -1.1028914013927943e-02 0.0000000000000000e+00  -5.5766479290988985e-06 -7.7137488622808460e-03 0.0000000000000000e+00  0.0000000000000000e+00 0.0000000000000000e+00 0.0000000000000000e+00  1.4594015390737341e-05 -1.0854566374219299e-02 0.0000000000000000e+00  1.3911683799510306e-05 -1.1465084287245885e-02 0.0000000000000000e+00  -6.4648469392482794e-06 -1.0980878977659279e-02 0.0000000000000000e+00  1.6466361430339577e-07 -7.8132438532547907e-03 0.0000000000000000e+00  0.0000000000000000e+00 0.0000000000000000e+00 0.0000000000000000e+00  1.5364492273078787e-05 -1.0925598404512299e-02 0.0000000000000000e+00  2.5312536233070562e-05 -1.1498299405699347e-02 0.0000000000000000e+00  2.1014486112221334e-05 -1.0989179837236433e-02 0.0000000000000000e+00  1.8638643242059379e-05 -1.1561835759865743e-02 0.0000000000000000e+00  1.3737350870756229e-05 -7.8388578752772754e-03 0.0000000000000000e+00  0.0000000000000000e+00 0.0000000000000000e+00 0.0000000000000000e+00  1.3677502558944311e-05 -1.0876222023371034e-02 0.0000000000000000e+00  2.2756943892342928e-05 -1.1452121502177672e-02 0.0000000000000000e+00  2.9867696431324604e-05 -1.0954923200873127e-02 0.0000000000000000e+00  2.3618809891334183e-05 -1.1513505802317156e-02 0.0000000000000000e+00  1.7610980269017915e-05 -7.8088697247884250e-03 0.0000000000000000e+00  0.0000000000000000e+00 0.0000000000000000e+00 0.0000000000000000e+00  1.2561012458270996e-05 -1.0901228336673332e-02 0.0000000000000000e+00  1.0322446389491608e-05 -1.1472803867592536e-02 0.0000000000000000e+00  -8.4812130763794578e-06 -1.0986532509917700e-02 0.0000000000000000e+00  3.8777143015709132e-06 -1.1537247518021074e-02 0.0000000000000000e+00  -9.9982316710036516e-07 -7.8454944779173062e-03 0.0000000000000000e+00  0.0000000000000000e+00 0.0000000000000000e+00 0.0000000000000000e+00  2.4157914060979938e-05 -1.0925602810421108e-02 0.0000000000000000e+00  3.4146902093813604e-05 -1.1480098627125509e-02 0.0000000000000000e+00  2.8537270673051543e-05 -1.1046150401460147e-02 0.0000000000000000e+00  2.3914188550320026e-05 -1.1549754374672150e-02 0.0000000000000000e+00  2.4077126052611315e-05 -7.7476936202519071e-03 0.0000000000000000e+00  0.0000000000000000e+00 0.0000000000000000e+00 0.0000000000000000e+00  1.6797870227765979e-05 -1.1085090161977600e-02 0.0000000000000000e+00  2.4717764401996836e-05 -1.1514594692716441e-02 0.0000000000000000e+00  3.3936838496350981e-05 -1.0686511931781975e-02 0.0000000000000000e+00  3.9067719021540098e-07 -1.1108555892083255e-02 0.0000000000000000e+00  -1.2064334309960455e-06 -1.1537059769251269e-02 0.0000000000000000e+00  -2.4544090940751353e-05 -1.0710961720633348e-02 0.0000000000000000e+00  2.0161796268679535e-05 -1.1497405239281984e-02 0.0000000000000000e+00  -6.7938753707405165e-07 -7.4350939357414663e-03 0.0000000000000000e+00  1.0498905395223832e-05 -1.1244486054702156e-02 0.0000000000000000e+00  1.6349263947871432e-05 -1.1561288131407502e-02 0.0000000000000000e+00  1.1963291465102186e-05 -1.0786255091449622e-02 0.0000000000000000e+00  1.7894167335450098e-05 -1.1200750426290830e-02 0.0000000000000000e+00  1.8020225475909672e-05 -1.1553976301029644e-02 0.0000000000000000e+00  2.4894160962857889e-05 -1.0789468788110997e-02 0.0000000000000000e+00  1.8136187249421139e-05 -1.1593870837271940e-02 0.0000000000000000e+00  2.0915876396983985e-05 -1.1580233913281180e-02 0.0000000000000000e+00  1.9364674694635613e-05 -1.1594114802640028e-02 0.0000000000000000e+00  1.8772120101385487e-05 -1.1596033425044531e-02 0.0000000000000000e+00  1.7580226471546168e-05 -1.1585046244027090e-02 0.0000000000000000e+00  1.7599346394313761e-05 -1.1556086020523583e-02 0.0000000000000000e+00  1.5204029724481288e-05 -1.1539442103290644e-02 0.0000000000000000e+00  1.9477291231872650e-05 -1.1564443163311316e-02 0.0000000000000000e+00  1.9341062527093139e-05 -1.1566496829497544e-02 0.0000000000000000e+00  1.9964312002223686e-05 -1.1550246364031113e-02 0.0000000000000000e+00  1.1077415524380816e-05 -1.1587528673579716e-02 0.0000000000000000e+00  1.3694684450833043e-05 -1.1572871377906493e-02 0.0000000000000000e+00  9.3472893621419801e-06 -1.1587321403108228e-02 0.0000000000000000e+00  1.0301880873749360e-05 -1.1590461072611734e-02 0.0000000000000000e+00  8.3735930926366169e-06 -1.1580396280486972e-02 0.0000000000000000e+00  1.4045577586525569e-05 -1.1608702168986620e-02 0.0000000000000000e+00  1.5391088925066836e-05 -1.1597112144887295e-02 0.0000000000000000e+00  1.3845488759698926e-05 -1.1608180430403806e-02 0.0000000000000000e+00  1.4320624080913326e-05 -1.1610188816797224e-02 0.0000000000000000e+00  1.1742424683065521e-05 -1.1593597472933785e-02 0.0000000000000000e+00  1.6385198233722453e-05 -1.1134034674222878e-02 0.0000000000000000e+00  2.4649692506168417e-05 -1.1564392188895120e-02 0.0000000000000000e+00  3.3930530629603830e-05 -1.0736490688850995e-02 0.0000000000000000e+00  5.7057151776710209e-06 -1.1522742497781947e-02 0.0000000000000000e+00  4.4132576938960595e-06 -7.4521236882766993e-03 0.0000000000000000e+00  1.5034028715649496e-05 -1.1147687608499117e-02 0.0000000000000000e+00  2.3780999870569603e-05 -1.1576094940919764e-02 0.0000000000000000e+00  3.3579471417987896e-05 -1.0748330213364252e-02 0.0000000000000000e+00  1.2541630688910667e-05 -1.1239149702014839e-02 0.0000000000000000e+00  1.7768006481070875e-05 -1.1551865212620423e-02 0.0000000000000000e+00  1.0426955513248012e-05 -7.5471571688505669e-03 0.0000000000000000e+00  3.2058186228167590e-06 -1.1536084225936348e-02 0.0000000000000000e+00  3.6887162830312757e-06 -7.4634623681671770e-03 0.0000000000000000e+00  6.2169345751244549e-06 -1.1473009318022646e-02 0.0000000000000000e+00  4.8400417765075593e-06 -7.4071733407242305e-03 0.0000000000000000e+00  -1.0412823647361031e-05 -1.1162217332894367e-02 0.0000000000000000e+00  -1.6226095566181241e-06 -1.1539166836513690e-02 0.0000000000000000e+00  -2.6699140046735733e-05 -1.0721333414226941e-02 0.0000000000000000e+00  1.0635709881236129e-05 -1.1606634423208573e-02 0.0000000000000000e+00  1.4061014123647747e-05 -1.1611427065872244e-02 0.0000000000000000e+00  1.0695021428828840e-05 -1.1609863357552578e-02 0.0000000000000000e+00  2.0032946405184040e-05 -1.1567659448394142e-02 0.0000000000000000e+00  2.1487053776173194e-05 -1.1568568228498752e-02 0.0000000000000000e+00  1.9319672073724075e-05 -1.1568924195759464e-02 0.0000000000000000e+00  7.6016503131773501e-06 -1.1589424742069102e-02 0.0000000000000000e+00  5.8423618920748629e-06 -1.1589918179151136e-02 0.0000000000000000e+00  8.5967960491051354e-06 -1.1591143625185298e-02 0.0000000000000000e+00  1.6823627981483120e-05 -1.1594307267370933e-02 0.0000000000000000e+00  1.9499640825348241e-05 -1.1595879002548512e-02 0.0000000000000000e+00  1.7650252657378667e-05 -1.1595954129387144e-02 0.0000000000000000e+00  -3.1864691318397233e-06 -1.1197912749223335e-02 0.0000000000000000e+00  4.8979274253505217e-06 -1.1547096020175006e-02 0.0000000000000000e+00  -1.6398053163737929e-05 -1.0769228471032339e-02 0.0000000000000000e+00  1.3838920938691387e-05 -1.1542201424996876e-02 0.0000000000000000e+00  1.3657443190409066e-05 -1.1531229300767035e-02 0.0000000000000000e+00  1.2316174330853852e-05 -1.1584547103256244e-02 0.0000000000000000e+00  2.0195679132743212e-05 -1.1262052607955314e-02 0.0000000000000000e+00  1.3345948508992556e-05 -1.1501010455344421e-02 0.0000000000000000e+00  1.6943105898315152e-05 -1.1553582177413419e-02 0.0000000000000000e+00  1.2222678112886934e-05 -1.1533247660228235e-02 0.0000000000000000e+00  9.6469165583636423e-06 -1.1519663062180609e-02 0.0000000000000000e+00  9.4813197449651744e-06 -1.1575