<?xml version="1.0"?>
<VTKFile type="UnstructuredGrid"  version="0.1"  >
<UnstructuredGrid>
<Piece  NumberOfPoints="2690" NumberOfCells="4864">
<Points>
<DataArray  type="Float64"  NumberOfComponents="3"  format="ascii">-5.029432167023621 22.00646268158881 0  -5.62733446820206 21.26902862415986 0  -5.028842659362536 21.50699392431392 0  -5.028170448881716 21.00650649301692 0  -5.627907032570445 21.76914394582777 0  -6.226406495926421 21.53078037303286 0  -9 21.99999999996945 0  -8.401171795165604 21.26385073781132 0  -9 21.49999999997139 0  -9 20.99999999997333 0  -8.401273650816361 21.76384314879005 0  -7.802451036437988 21.52766954483831 0  -9 32.9999999999446 0  -8.403410582898362 32.26382976979341 0  -9 32.49999999994358 0  -9 31.99999999994255 0  -8.403512494150878 32.76383161619782 0  -7.806928337107691 32.52764812984925 0  -5.044294402594815 33.00699073830872 0  -5.557451317556215 32.30327531932282 0  -5.043675345567976 32.50791699854578 0  -5.042975221857748 32.00676918702293 0  -5.558040732465016 32.80345307419498 0  -6.07181211121128 32.59891456083439 0  -5.072889854578256 54.00668189992297 0  -5.665818755757466 54.74386757131251 0  -5.665255796448596 54.24414465360832 0  -6.257559459365757 54.4806321176947 0  -5.073531884374193 54.50716079142995 0  -5.074136456032888 55.0067487318673 0  -9 54.99999999998974 0  -8.479632846885277 54.29725577432007 0  -9 54.49999999998872 0  -9 53.99999999998769 0  -8.47972107130686 54.79722863866124 0  -7.959371794668623 54.59446589216058 0  -9 39.99999999995897 0  -8.405140696222483 40.73880938512507 0  -8.405038798710867 40.23881068102821 0  -7.810174697196211 40.47760240713192 0  -9 40.49999999996 0  -9 40.99999999996102 0  -5.055129097073001 41.00619780160656 0  -5.622817834146974 40.27448435512082 0  -5.054516888268534 40.50719477867094 0  -5.053866064699875 40.0069790922872 0  -5.623392025615091 40.77437899561523 0  -6.191697509394427 40.54143186626509 0  -9 55.99999999999179 0  -8.432741408365526 56.74453946527505 0  -8.432653998229537 56.2445224495368 0  -7.865399592349867 56.48904421679486 0  -9 56.49999999999282 0  -9 56.99999999999384 0  -5.07559770514107 56.00638896216569 0  -5.643754668090547 56.74972616405087 0  -5.643195007561422 56.24969962094485 0  -6.210711215033997 56.49221388838433 0  -5.076280135262362 56.50737465072184 0  -5.076882204605422 57.00676754490588 0  -7.460108556208908 43.00365753364549 0  -6.624588594819675 43.11388244746242 0  -7.225259762506931 43.34161471819315 0  -6.990464792116376 43.67957736813029 0  -6.859384691853392 42.77588565371981 0  -6.258566294444633 42.54811440733744 0  -6.602704402609878 49.00689411429923 0  -7.436539927368435 48.89628354890132 0  -6.837020056284095 48.66888797082866 0  -7.071392806001376 48.3308617317167 0  -7.202171211733145 49.23427562520558 0  -7.801542502540117 49.46170663776675 0  -6.600224359564041 46.0064776911622 0  -7.434923965061682 45.89601578827507 0  -6.834787244421032 45.66839768523964 0  -7.069405812268689 45.33035099828474 0  -7.200309452619091 46.23405808408977 0  -7.800300390609484 46.46161398044303 0  -6.568171141632995 7.006715258874429 0  -7.414021275145022 6.896201562152526 0  -6.805872463804104 6.668705255936417 0  -7.043629493339106 6.330696961514222 0  -7.17626834054512 7.234209121004575 0  -7.784271984321885 7.461697700264035 0  -7.453236410790276 30.00361637269621 0  -6.61398590282028 30.11379167494556 0  -7.2173398385881 30.34147540737958 0  -6.981497835265863 30.67931249845873 0  -6.84983036932047 29.77591130397751 0  -6.246328743345052 29.54824120217378 0  -6.565775800687271 4.006395574992219 0  -7.412583509226353 4.112343196411015 0  -6.804199235708057 4.343163417735736 0  -7.042571650548776 4.679909942903296 0  -7.174214440698763 3.775583253375126 0  -7.782733696719436 3.544813383512104 0  -6.570611527659526 10.00677485943309 0  -7.415725606649322 10.11259667546122 0  -6.808567798242869 10.34345787438711 0  -7.046471719407029 10.6801410088753 0  -7.177817880670299 9.775919792506478 0  -7.785118376785493 9.545057223770323 0  -6.573057587562637 13.00683205038137 0  -7.417205481491488 12.89629569010167 0  -6.81027820417781 12.66882426267727 0  -7.047554197545191 12.33081877486142 0  -7.179932225124531 13.23431133236155 0  -7.786714525507896 13.46177107885667 0  -6.57551315334883 16.00693662823931 0  -7.418807873679883 15.8963259229771 0  -6.812492594803831 15.66893640196935 0  -7.049528215369362 15.33091951290465 0  -7.18177614915189 16.23431795523248 0  -7.787944928193287 16.46173843841485 0  -6.577993227119675 19.00621150922447 0  -7.420542414890129 19.11215779390747 0  -6.815236659756525 19.34278455966932 0  -7.05242363868813 19.67939661183384 0  -7.18335135646417 18.77552603887884 0  -7.788805739302145 18.54482244309168 0  -6.584573024266955 27.00597892953814 0  -7.424833377565729 27.11201188330275 0  -6.821168262767157 27.34268251207451 0  -7.057709658980778 27.6793953573407 0  -7.188289182268599 26.77526250237604 0  -7.792098974566925 26.54460031001408 0  -8.273798165479066 19.09573105307984 0  -8.031324928944761 18.82026652854017 0  -8.394346681618867 18.27242924703646 0  -8.636830941247613 18.54789376594232 0  -9 17.99999999998495 0  -8.275771392936221 27.0956576862979 0  -8.03395781902184 26.82012979006724 0  -8.395993964093364 26.27229425152595 0  -8.637818384589416 26.54782765595743 0  -9 25.99999999995395 0  -8.273007922473495 15.90815699055655 0  -8.030453619235594 16.18495138952502 0  -8.394028162624837 16.73085451931131 0  -8.636571459008756 16.45406782185205 0  -9 16.99999999998883 0  -5.763906918207207 30.10180085741823 0  -6.005093397456895 29.82501258789311 0  -5.642679726125991 29.27886489965067 0  -5.4014777593853 29.55595639703855 0  -5.038837559712938 29.00645162268468 0  -8.272270881002504 12.90815462247912 0  -8.029470068057908 13.18496148891155 0  -8.39341242243723 13.73088835095099 0  -8.636202463148992 13.45408044252261 0  -9 13.99999999999401 0  -8.271583563146622 10.09593662559191 0  -8.028373360178184 9.820497199169859 0  -8.392504008882032 9.272527533319909 0  -8.635725163322149 9.547967022767724 0  -9 8.99999999999857 0  -8.270143583313574 4.095816672272471 0  -8.026459099374797 3.820320437709297 0  -8.3913220721477 3.272397304502064 0  -8.635012330548555 3.547894912840229 0  -9 2.999999999998668 0  -8.270807433135783 6.908107516638227 0  -8.027517195525984 7.18490132009901 0  -8.392190906448503 7.730850793761358 0  -8.635470188599674 7.454057702591177 0  -9 7.999999999999485 0  -8.280417778736807 45.90802193499328 0  -8.040336350237109 46.18481049236438 0  -8.40020583122902 46.73081863493557 0  -8.640276217308852 46.45403073566383 0  -9 46.99999999997333 0  -8.281160723381939 48.90813380449089 0  -8.041328545182651 49.18492381075246 0  -8.400827418391088 49.73083815435714 0  -8.640648553492047 49.45405754666056 0  -9 49.99999999997949 0  -5.778293521291431 43.10187831319958 0  -6.018405056641773 42.82499296238522 0  -5.657599909430065 42.27864774503782 0  -5.417474388589745 42.55587130783897 0  -5.056434681476818 42.00619198476148 0  -5.7523923031043 23.92429859629287 0  -5.999433598345065 24.19133774072037 0  -5.639941627222345 24.73394473319672 0  -6.246426816407525 24.45839782096334 0  -5.392929334026509 24.46721191578797 0  -5.033557310900164 25.00643126082079 0  -8.286613657397346 52.08548336048949 0  -8.042126096084637 51.81840550396119 0  -8.398739160142224 51.27569058836221 0  -7.797593051024331 51.55134581469423 0  -8.643239583605824 51.542768045529 0  -9 50.99999999998153 0  -5.768057962864241 38.09156264597933 0  -6.013358019667799 37.8230847412186 0  -5.654281689694333 37.28192187429902 0  -6.258705875166064 37.55463089629359 0  -5.408964512568336 37.5507647940557 0  -5.049644812752597 37.00590427937617 0  -5.764551627016498 34.92423536790181 0  -6.010671582704286 35.19122852417662 0  -5.652532800145875 35.73375568473717 0  -6.256743541431834 35.45824201735686 0  -5.406437703329709 35.46711377414241 0  -5.048429248940691 36.00614677023103 0  -7.902764470881451 50.5031724159999 0  -7.85016908482172 51.02726721405616 0  -8.451429692173217 50.75156922796499 0  -6.151751463094468 36.50638233518706 0  -6.205235987537895 37.03046623177962 0  -5.600705631020342 36.75728925293765 0  -6.204239512673753 35.98227159933579 0  -5.600130870633559 36.25722253210476 0  -6.002312707308857 25.26697759875028 0  -6.124355236173136 24.86270228812699 0  -5.517953440613888 25.13788345954148 0  -8.035895397634256 25.74813579055984 0  -7.913980672807202 26.14636784903626 0  -8.517968385438632 25.87406893016554 0  -6.966097909202028 34.38061248040941 0  -6.611354087828778 34.91946297369578 0  -6.865537280155983 35.24337704395298 0  -7.220288839066603 34.70457922189156 0  -7.474422819719447 35.02853459608148 0  -7.092112202968486 52.62879482643093 0  -7.444786125772749 52.09010441676366 0  -7.192130220630848 51.76629016796732 0  -6.839463225927064 52.30499983427724 0  -6.586756817924188 51.98122360504451 0  -6.969059176419395 38.62876747666766 0  -6.613948891074762 38.09173617563414 0  -6.867380410347891 37.76656085404451 0  -7.222483374358801 38.30364795420832 0  -7.475964346519429 37.97851498713883 0  -6.958456217332228 23.3806473933384 0  -6.602375497350325 23.91954441214115 0  -6.857511196854949 24.24348740757953 0  -7.213600023392488 23.70463514598114 0  -7.468687209647443 24.02860479925532 0  -7.890452723911804 17.5030259603039 0  -7.839619827532458 18.02393378620631 0  -8.445273667569207 17.75149535377496 0  -7.839207764456065 16.98238572881297 0  -8.445179085284408 17.25152269369836 0  -7.887083518101594 8.503097068989019 0  -7.836092085784482 9.024077752508887 0  -8.443588122559859 8.751549236656109 0  -7.932211111021975 2.418287277491749 0  -7.857453375252288 2.981542124371388 0  -8.466149592073799 2.709152767590707 0  -7.835686670710824 7.982399081957386 0  -8.443495119285997 8.251546351709699 0  -7.852162694517718 49.98244334976901 0  -8.451334471661486 50.25159609542174 0  -6.068204081514259 41.59936794621225 0  -6.163399640912927 42.07376
[...]
<PointData  Vectors="f_27"> 
<DataArray  type="Float64"  Name="f_27"  NumberOfComponents="3" format="ascii">0.0000000000000000e+00 0.0000000000000000e+00 0.0000000000000000e+00  2.4299537272420833e-06 -7.5259309372669083e-03 0.0000000000000000e+00  0.0000000000000000e+00 0.0000000000000000e+00 0.0000000000000000e+00  0.0000000000000000e+00 0.0000000000000000e+00 0.0000000000000000e+00  -1.1974285495991395e-05 -1.0531584538579924e-02 0.0000000000000000e+00  7.2847528891008907e-07 -1.0837440643296566e-02 0.0000000000000000e+00  0.0000000000000000e+00 0.0000000000000000e+00 0.0000000000000000e+00  1.1194461875610808e-05 -7.6624411689877507e-03 0.0000000000000000e+00  0.0000000000000000e+00 0.0000000000000000e+00 0.0000000000000000e+00  0.0000000000000000e+00 0.0000000000000000e+00 0.0000000000000000e+00  3.4858566278768428e-05 -1.0510237282419508e-02 0.0000000000000000e+00  2.2042218568875831e-05 -1.0882626184812181e-02 0.0000000000000000e+00  0.0000000000000000e+00 0.0000000000000000e+00 0.0000000000000000e+00  1.0479675111008300e-05 -7.4995299026538505e-03 0.0000000000000000e+00  0.0000000000000000e+00 0.0000000000000000e+00 0.0000000000000000e+00  0.0000000000000000e+00 0.0000000000000000e+00 0.0000000000000000e+00  3.3880073792734192e-05 -1.0480122760526187e-02 0.0000000000000000e+00  2.1742521811033300e-05 -1.0853238878319148e-02 0.0000000000000000e+00  0.0000000000000000e+00 0.0000000000000000e+00 0.0000000000000000e+00  2.7726677029388946e-06 -7.8755220367343910e-03 0.0000000000000000e+00  0.0000000000000000e+00 0.0000000000000000e+00 0.0000000000000000e+00  0.0000000000000000e+00 0.0000000000000000e+00 0.0000000000000000e+00  -2.6901129361783049e-06 -1.0524237720575371e-02 0.0000000000000000e+00  5.4067065492186770e-06 -1.0881588084566728e-02 0.0000000000000000e+00  0.0000000000000000e+00 0.0000000000000000e+00 0.0000000000000000e+00  9.4696890719499568e-06 -7.8100564541119166e-03 0.0000000000000000e+00  3.3410000377247889e-05 -1.0453738087580303e-02 0.0000000000000000e+00  1.9917540583974048e-05 -1.0809857490527137e-02 0.0000000000000000e+00  0.0000000000000000e+00 0.0000000000000000e+00 0.0000000000000000e+00  0.0000000000000000e+00 0.0000000000000000e+00 0.0000000000000000e+00  0.0000000000000000e+00 0.0000000000000000e+00 0.0000000000000000e+00  7.2779003585696178e-06 -7.7976915505214815e-03 0.0000000000000000e+00  0.0000000000000000e+00 0.0000000000000000e+00 0.0000000000000000e+00  0.0000000000000000e+00 0.0000000000000000e+00 0.0000000000000000e+00  1.4220163073416247e-05 -1.0548649143323895e-02 0.0000000000000000e+00  1.3080179259976924e-05 -1.0835447972746702e-02 0.0000000000000000e+00  0.0000000000000000e+00 0.0000000000000000e+00 0.0000000000000000e+00  6.6335650319682690e-06 -7.4663012661744365e-03 0.0000000000000000e+00  -8.6542254744805260e-06 -1.0466515557186395e-02 0.0000000000000000e+00  3.0526647080402060e-06 -1.0833628765784866e-02 0.0000000000000000e+00  0.0000000000000000e+00 0.0000000000000000e+00 0.0000000000000000e+00  0.0000000000000000e+00 0.0000000000000000e+00 0.0000000000000000e+00  0.0000000000000000e+00 0.0000000000000000e+00 0.0000000000000000e+00  1.2850729510829050e-05 -7.6038277363755583e-03 0.0000000000000000e+00  0.0000000000000000e+00 0.0000000000000000e+00 0.0000000000000000e+00  0.0000000000000000e+00 0.0000000000000000e+00 0.0000000000000000e+00  1.3044133755843499e-06 -1.0585354732352076e-02 0.0000000000000000e+00  8.8712812908802525e-06 -1.0858387677730749e-02 0.0000000000000000e+00  0.0000000000000000e+00 0.0000000000000000e+00 0.0000000000000000e+00  1.6585348134467056e-05 -8.0957181399031568e-03 0.0000000000000000e+00  1.2163088656233974e-06 -1.0485587029688962e-02 0.0000000000000000e+00  1.3802763674923342e-05 -1.0825499363841966e-02 0.0000000000000000e+00  0.0000000000000000e+00 0.0000000000000000e+00 0.0000000000000000e+00  0.0000000000000000e+00 0.0000000000000000e+00 0.0000000000000000e+00  0.0000000000000000e+00 0.0000000000000000e+00 0.0000000000000000e+00  4.2829289919755451e-07 -8.0974079512720464e-03 0.0000000000000000e+00  1.9560953672775999e-05 -1.0484830716536088e-02 0.0000000000000000e+00  8.5081472544107631e-06 -1.0821602265795600e-02 0.0000000000000000e+00  0.0000000000000000e+00 0.0000000000000000e+00 0.0000000000000000e+00  0.0000000000000000e+00 0.0000000000000000e+00 0.0000000000000000e+00  1.7850712567647601e-05 -1.1140027917560191e-02 0.0000000000000000e+00  1.8866636620539734e-05 -1.1147815982824289e-02 0.0000000000000000e+00  1.6469624856804355e-05 -1.1148978064509554e-02 0.0000000000000000e+00  1.5349193352288111e-05 -1.1149352445382298e-02 0.0000000000000000e+00  1.7749333429913138e-05 -1.1147949976018413e-02 0.0000000000000000e+00  1.2134881462383140e-05 -1.1107769138003180e-02 0.0000000000000000e+00  2.3271666402954732e-05 -1.1120965844692408e-02 0.0000000000000000e+00  2.1408670444242647e-05 -1.1115461750213088e-02 0.0000000000000000e+00  2.3506488628476536e-05 -1.1130021692618904e-02 0.0000000000000000e+00  2.3096598380208377e-05 -1.1124390882147209e-02 0.0000000000000000e+00  2.0547508602375908e-05 -1.1127454853560786e-02 0.0000000000000000e+00  1.4931379550284011e-05 -1.1086532573452677e-02 0.0000000000000000e+00  1.5588729081331732e-05 -1.1129495807873268e-02 0.0000000000000000e+00  1.4358586150992502e-05 -1.1135304838616480e-02 0.0000000000000000e+00  1.3739523872236413e-05 -1.1139506486943630e-02 0.0000000000000000e+00  1.2624660453277940e-05 -1.1142275687343644e-02 0.0000000000000000e+00  1.5058115256270547e-05 -1.1133852322092613e-02 0.0000000000000000e+00  1.1419938711602497e-05 -1.1091367222882752e-02 0.0000000000000000e+00  1.7065086231044085e-05 -1.1209525199346520e-02 0.0000000000000000e+00  1.4712683101314908e-05 -1.1216160620609447e-02 0.0000000000000000e+00  1.5932720249396751e-05 -1.1219489099116440e-02 0.0000000000000000e+00  1.6739372305676824e-05 -1.1220726012052295e-02 0.0000000000000000e+00  1.4754875715383148e-05 -1.1216850812399632e-02 0.0000000000000000e+00  1.0086222045188512e-05 -1.1178366621070348e-02 0.0000000000000000e+00  1.4222167166027255e-05 -1.1161928757653615e-02 0.0000000000000000e+00  1.9844757008915678e-05 -1.1158917884388751e-02 0.0000000000000000e+00  1.4163032744365995e-05 -1.1174693658530476e-02 0.0000000000000000e+00  1.4398360188216611e-05 -1.1167283657472254e-02 0.0000000000000000e+00  1.7342392929192534e-05 -1.1168925149875331e-02 0.0000000000000000e+00  1.5562851180600969e-05 -1.1125585463050197e-02 0.0000000000000000e+00  2.0933571520363510e-05 -1.1219642859975442e-02 0.0000000000000000e+00  2.0320051233286184e-05 -1.1223179452460489e-02 0.0000000000000000e+00  2.0916488059579219e-05 -1.1227062537710707e-02 0.0000000000000000e+00  1.9709900052255383e-05 -1.1225877880408009e-02 0.0000000000000000e+00  2.0422598716713616e-05 -1.1225177228054418e-02 0.0000000000000000e+00  2.3028546061594820e-05 -1.1188254769285052e-02 0.0000000000000000e+00  2.3823526996837369e-05 -1.1205472997218444e-02 0.0000000000000000e+00  2.2690203211326680e-05 -1.1208841837957752e-02 0.0000000000000000e+00  2.2485281551313177e-05 -1.1212469955290502e-02 0.0000000000000000e+00  2.1008900662133856e-05 -1.1211591453874639e-02 0.0000000000000000e+00  2.4603524496131647e-05 -1.1211043872501124e-02 0.0000000000000000e+00  2.8708975827385443e-05 -1.1167220224362182e-02 0.0000000000000000e+00  1.7554395121875250e-05 -1.1195718751241349e-02 0.0000000000000000e+00  1.6206487880973279e-05 -1.1202361681115006e-02 0.0000000000000000e+00  1.6887068383482514e-05 -1.1205781789718438e-02 0.0000000000000000e+00  1.7986808570775544e-05 -1.1207137068521956e-02 0.0000000000000000e+00  1.5662904074669386e-05 -1.1202082737809201e-02 0.0000000000000000e+00  1.1462954185198891e-05 -1.1160613844714486e-02 0.0000000000000000e+00  2.2437511438582418e-05 -1.1191730927542986e-02 0.0000000000000000e+00  2.0703046374102578e-05 -1.1185861979459933e-02 0.0000000000000000e+00  2.2762539350163726e-05 -1.1200521468491135e-02 0.0000000000000000e+00  2.2463281011742520e-05 -1.1194752016099497e-02 0.0000000000000000e+00  1.9670465327009671e-05 -1.1198012079177646e-02 0.0000000000000000e+00  1.4148834360764724e-05 -1.1156971205877646e-02 0.0000000000000000e+00  2.9947511706893000e-05 -1.1183851481459844e-02 0.0000000000000000e+00  2.2812790603579451e-05 -1.1182365714987548e-02 0.0000000000000000e+00  2.7500841269088166e-05 -1.1196815443126748e-02 0.0000000000000000e+00  2.2677481920906057e-05 -1.1188564934521463e-02 0.0000000000000000e+00  2.6796258559262565e-05 -1.1194198934792721e-02 0.0000000000000000e+00  2.9078384202601074e-05 -1.1148418101112367e-02 0.0000000000000000e+00  2.5446281804369648e-05 -1.1165819181708047e-02 0.0000000000000000e+00  2.2346481789608486e-05 -1.1176219581672572e-02 0.0000000000000000e+00  2.5229055966671773e-05 -1.1178251754370566e-02 0.0000000000000000e+00  2.2264269992293414e-05 -1.1174149457867273e-02 0.0000000000000000e+00  2.2165171756814895e-05 -1.1176862523638774e-02 0.0000000000000000e+00  2.3471472328503149e-05 -1.1138394542046728e-02 0.0000000000000000e+00  1.4434114868277031e-05 -1.0485554128702317e-02 0.0000000000000000e+00  2.5300977121641810e-05 -1.1080649422428450e-02 0.0000000000000000e+00  3.3565599669724482e-05 -1.0605878862031480e-02 0.0000000000000000e+00  2.0492569351748676e-05 -7.5517729675365092e-03 0.0000000000000000e+00  0.0000000000000000e+00 0.0000000000000000e+00 0.0000000000000000e+00  1.6325353738686899e-05 -1.0479148479037964e-02 0.0000000000000000e+00  2.1052437267347759e-05 -1.1066470607796117e-02 0.0000000000000000e+00  2.5486902438651218e-05 -1.0594579564994664e-02 0.0000000000000000e+00  1.6456259236336861e-05 -7.5325724144605513e-03 0.0000000000000000e+00  0.0000000000000000e+00 0.0000000000000000e+00 0.0000000000000000e+00  1.5477162180262324e-05 -1.0502326842956378e-02 0.0000000000000000e+00  1.0439187502419145e-05 -1.1082258349882652e-02 0.0000000000000000e+00  1.9798041239089247e-06 -1.0677003262114374e-02 0.0000000000000000e+00  -1.9494829637484386e-06 -7.4824481084040870e-03 0.0000000000000000e+00  0.0000000000000000e+00 0.0000000000000000e+00 0.0000000000000000e+00  2.3630314190701955e-05 -1.0463772995403277e-02 0.0000000000000000e+00  2.7060277318402161e-05 -1.1054064013115593e-02 0.0000000000000000e+00  6.2800049635439166e-06 -1.0594809325369239e-02 0.0000000000000000e+00  6.4613197640610012e-06 -7.5369478952684839e-03 0.0000000000000000e+00  0.0000000000000000e+00 0.0000000000000000e+00 0.0000000000000000e+00  1.6198782396712901e-05 -1.0502523090261643e-02 0.0000000000000000e+00  1.1698218085915248e-05 -1.1088690586160549e-02 0.0000000000000000e+00  4.5941366003449952e-06 -1.0621303120329032e-02 0.0000000000000000e+00  4.9449615423039075e-06 -7.5576224883467475e-03 0.0000000000000000e+00  0.0000000000000000e+00 0.0000000000000000e+00 0.0000000000000000e+00  1.9299510490812517e-05 -1.0506239192555077e-02 0.0000000000000000e+00  2.6864879062505397e-05 -1.1095959837949792e-02 0.0000000000000000e+00  3.3997998760091381e-05 -1.0621382993163541e-02 0.0000000000000000e+00  2.1944327528300944e-05 -7.5687848935660591e-03 0.0000000000000000e+00  0.0000000000000000e+00 0.0000000000000000e+00 0.0000000000000000e+00  1.9467469382592898e-05 -1.0535998041539752e-02 0.0000000000000000e+00  2.4395243320296948e-05 -1.1109819597646672e-02 0.0000000000000000e+00  2.9828453662361627e-05 -1.0707668685215783e-02 0.0000000000000000e+00  2.4291536591688988e-05 -7.5129459345618637e-03 0.0000000000000000e+00  0.0000000000000000e+00 0.0000000000000000e+00 0.0000000000000000e+00  1.0940289677259039e-05 -1.0528959301371824e-02 0.0000000000000000e+00  6.7512478604526191e-06 -1.1101541731378780e-02 0.0000000000000000e+00  -4.3771236373686219e-07 -1.0694752339689870e-02 0.0000000000000000e+00  -3.6249212971569085e-06 -7.5025349616375941e-03 0.0000000000000000e+00  0.0000000000000000e+00 0.0000000000000000e+00 0.0000000000000000e+00  1.7078497497488550e-05 -1.0429574024783244e-02 0.0000000000000000e+00  1.1878207637402393e-05 -1.1018017601291844e-02 0.0000000000000000e+00  5.0705728007968088e-06 -1.0553582458160059e-02 0.0000000000000000e+00  5.2200707872142775e-06 -7.4831168803081013e-03 0.0000000000000000e+00  0.0000000000000000e+00 0.0000000000000000e+00 0.0000000000000000e+00  1.5954803010799335e-05 -1.0429214431165412e-02 0.0000000000000000e+00  1.1158737549400550e-05 -1.1010966189661161e-02 0.0000000000000000e+00  2.9246957643452392e-06 -1.0608716140817482e-02 0.0000000000000000e+00  -1.2796599226915330e-06 -7.4085237783571151e-03 0.0000000000000000e+00  0.0000000000000000e+00 0.0000000000000000e+00 0.0000000000000000e+00  2.0557119107151513e-05 -1.0444307591126058e-02 0.0000000000000000e+00  2.3225380962817806e-05 -1.1033508841421761e-02 0.0000000000000000e+00  -1.0520817670347187e-06 -1.0572656843512772e-02 0.0000000000000000e+00  4.0555927375694043e-06 -7.5145489696366160e-03 0.0000000000000000e+00  0.0000000000000000e+00 0.0000000000000000e+00 0.0000000000000000e+00  2.1839929079550756e-05 -1.0524933572759200e-02 0.0000000000000000e+00  3.3360339857246836e-05 -1.1078670569901842e-02 0.0000000000000000e+00  2.4863340161858654e-05 -1.0583710281460866e-02 0.0000000000000000e+00  2.4282529367044583e-05 -1.1139675430986979e-02 0.0000000000000000e+00  1.6919384378785201e-05 -7.5421651509413132e-03 0.0000000000000000e+00  0.0000000000000000e+00 0.0000000000000000e+00 0.0000000000000000e+00  1.8195387023600875e-05 -1.0458363390615590e-02 0.0000000000000000e+00  2.7200382690929388e-05 -1.1014465726820589e-02 0.0000000000000000e+00  3.3863205302287138e-05 -1.0536711793055868e-02 0.0000000000000000e+00  2.8452627281076306e-05 -1.1073688168679279e-02 0.0000000000000000e+00  2.0359034607581272e-05 -7.4995178967919929e-03 0.0000000000000000e+00  0.0000000000000000e+00 0.0000000000000000e+00 0.0000000000000000e+00  1.9356774643183372e-05 -1.0492865330787296e-02 0.0000000000000000e+00  1.9556788706223751e-05 -1.1043382761435185e-02 0.0000000000000000e+00  -3.8225776329204332e-06 -1.0580450235833557e-02 0.0000000000000000e+00  1.0213221776452736e-05 -1.1105937981126133e-02 0.0000000000000000e+00  3.1863639161662714e-06 -7.5500912361632748e-03 0.0000000000000000e+00  0.0000000000000000e+00 0.0000000000000000e+00 0.0000000000000000e+00  3.0425373249434355e-05 -1.0516794164794433e-02 0.0000000000000000e+00  4.2158635937568906e-05 -1.1052864169469061e-02 0.0000000000000000e+00  3.1731217609745773e-05 -1.0631751907416963e-02 0.0000000000000000e+00  2.9380008422057166e-05 -1.1120224085073802e-02 0.0000000000000000e+00  2.6730317760416985e-05 -7.4450140762030844e-03 0.0000000000000000e+00  0.0000000000000000e+00 0.0000000000000000e+00 0.0000000000000000e+00  2.1754462437025723e-05 -1.0660883987101452e-02 0.0000000000000000e+00  2.9519072549534671e-05 -1.1075200780765253e-02 0.0000000000000000e+00  3.7586742214681353e-05 -1.0275903748407028e-02 0.0000000000000000e+00  1.7573587239144100e-06 -1.0693240350686714e-02 0.0000000000000000e+00  3.2211838327098390e-06 -1.1106329117471772e-02 0.0000000000000000e+00  -2.4581580958697762e-05 -1.0309493381934055e-02 0.0000000000000000e+00  2.3873705590708341e-05 -1.1068578701728161e-02 0.0000000000000000e+00  -2.9490344114829537e-06 -7.1516844372059305e-03 0.0000000000000000e+00  1.1977487632822419e-05 -1.0832130668353656e-02 0.0000000000000000e+00  2.0404395366669359e-05 -1.1138267966644229e-02 0.0000000000000000e+00  1.0334086094744855e-05 -1.0391190805265809e-02 0.0000000000000000e+00  2.1930773394142529e-05 -1.0789332689379538e-02 0.0000000000000000e+00  2.2491652446433227e-05 -1.1130197746389212e-02 0.0000000000000000e+00  2.8363861463744919e-05 -1.0392105845719273e-02 0.0000000000000000e+00  2.3550134742993964e-05 -1.1163127296034170e-02 0.0000000000000000e+00  2.7454853212526423e-05 -1.1149959562750285e-02 0.0000000000000000e+00  2.4810702380083272e-05 -1.1163335301975363e-02 0.0000000000000000e+00  2.4254726303531388e-05 -1.1165103611329491e-02 0.0000000000000000e+00  2.2489980027723878e-05 -1.1154316847958626e-02 0.0000000000000000e+00  2.3194123209883572e-05 -1.1113068700072892e-02 0.0000000000000000e+00  2.0476365963625884e-05 -1.1098042762217611e-02 0.0000000000000000e+00  2.4986315527333717e-05 -1.1121751924534544e-02 0.0000000000000000e+00  2.5210401061296763e-05 -1.1123122427764169e-02 0.0000000000000000e+00  2.5609256465130154e-05 -1.1107345245983903e-02 0.0000000000000000e+00  1.6867481446447257e-05 -1.1154083129641414e-02 0.0000000000000000e+00  2.0628193034456976e-05 -1.1139970699763795e-02 0.0000000000000000e+00  1.5264787475971592e-05 -1.1153928988046281e-02 0.0000000000000000e+00  1.6204656696822388e-05 -1.1157061655539301e-02 0.0000000000000000e+00  1.3722250139380820e-05 -1.1147561846833362e-02 0.0000000000000000e+00  1.9444723241922981e-05 -1.1185030754121963e-02 0.0000000000000000e+00  2.2004527525309193e-05 -1.1174037641295712e-02 0.0000000000000000e+00  1.9488417046170835e-05 -1.1184592665786152e-02 0.0000000000000000e+00  1.9838546396389955e-05 -1.1186310730342947e-02 0.0000000000000000e+00  1.6812023958132608e-05 -1.1170136020342798e-02 0.0000000000000000e+00  2.1309789195276558e-05 -1.0731307098879787e-02 0.0000000000000000e+00  2.9542037159530271e-05 -1.1146371838990109e-02 0.0000000000000000e+00  3.7749830406171215e-05 -1.0347695985427492e-02 0.0000000000000000e+00  1.1386817068185850e-05 -1.1106533799971044e-02 0.0000000000000000e+00  7.9051302865713634e-06 -7.1805174627476561e-03 0.0000000000000000e+00  1.9894069690032035e-05 -1.0750065817270331e-02 0.0000000000000000e+00  2.8606743906376780e-05 -1.1163258517522992e-02 0.0000000000000000e+00  3.7436562569534216e-05 -1.0364428015486520e-02 0.0000000000000000e+00  1.7573582278089703e-05 -1.0840649349509511e-02 0.0000000000000000e+00  2.2654709764566731e-05 -1.1142415399815442e-02 0.0000000000000000e+00  1.3494494762489511e-05 -7.2790805964509939e-03 0.0000000000000000e+00  8.7387987256837475e-06 -1.1125029019436062e-02 0.0000000000000000e+00  7.1300202418544576e-06 -7.1963413266534970e-03 0.0000000000000000e+00  1.2091347974649075e-05 -1.1035438857113358e-02 0.0000000000000000e+00  8.4251226698650222e-06 -7.1166708410684270e-03 0.0000000000000000e+00  -7.9396622712059404e-06 -1.0742724670022227e-02 0.0000000000000000e+00  3.9130380916102151e-06 -1.1106292087750670e-02 0.0000000000000000e+00  -2.4916287888714088e-05 -1.0316799081872673e-02 0.0000000000000000e+00  1.5712105915755941e-05 -1.1182702405609597e-02 0.0000000000000000e+00  1.9242440949622064e-05 -1.1187623990050306e-02 0.0000000000000000e+00  1.6069904996935842e-05 -1.1185820150515009e-02 0.0000000000000000e+00  2.5450616757803292e-05 -1.1125355974202633e-02 0.0000000000000000e+00  2.6804644695588675e-05 -1.1126599428528701e-02 0.0000000000000000e+00  2.4773738201125775e-05 -1.1126082016170588e-02 0.0000000000000000e+00  1.2666544257254521e-05 -1.1156379991200321e-02 0.0000000000000000e+00  1.1192836079858111e-05 -1.1156633490066866e-02 0.0000000000000000e+00  1.4010773406425516e-05 -1.1157967271279738e-02 0.0000000000000000e+00  2.1495134263751149e-05 -1.1163139218073713e-02 0.0000000000000000e+00  2.4278863414458792e-05 -1.1164784837427288e-02 0.0000000000000000e+00  2.2655798839780748e-05 -1.1164813976977597e-02 0.0000000000000000e+00  -1.0154986571830463e-06 -1.0784844619872537e-02 0.0000000000000000e+00  9.6851417682790242e-06 -1.1121461126749960e-02 0.0000000000000000e+00  -1.6345153339917180e-05 -1.0369783203353272e-02 0.0000000000000000e+00  1.9158713319825586e-05 -1.1108069633239868e-02 0.0000000000000000e+00  2.0604481902645252e-05 -1.1097707113716869e-02 0.0000000000000000e+00  1.8028290327001590e-05 -1.1149178583164493e-02 0.0000000000000000e+00  2.5697719313203122e-05 -1.0833649031706933e-02 0.0000000000000000e+00  1.9339589147549213e-05 -1.1063536104291484e-02 0.0000000000000000e+00  2.3236978382318103e-05 -1.1114542673251147e-02 0.0000000000000000e+00  1.7082577217884127e-05 -1.1096904567067271e-02 0.0000000000000000e+00  1.5034047840016796e-05 -1.1083090007163820e-02 0.0000000000000000e+00  1.4744613742051301e-05 -1.1137042392734484