<?xml version="1.0"?>
<VTKFile type="UnstructuredGrid"  version="0.1"  >
<UnstructuredGrid>
<Piece  NumberOfPoints="2690" NumberOfCells="4864">
<Points>
<DataArray  type="Float64"  NumberOfComponents="3"  format="ascii">-5.078919725807693 22.0172517653663 0  -5.668073514048676 21.27990757712207 0  -5.077370408704169 21.51866242584746 0  -5.075519224710083 21.01732874084521 0  -5.669641282902545 21.78022709260306 0  -6.260338925911281 21.54042072499378 0  -9 21.99999999996945 0  -8.408398948887038 21.2661051204468 0  -9 21.49999999997139 0  -9 20.99999999997333 0  -8.408677045977957 21.76608508761881 0  -7.81709327406029 21.53212461413798 0  -9 32.9999999999446 0  -8.414476528962458 32.26604858741724 0  -9 32.49999999994358 0  -9 31.99999999994255 0  -8.41475422099883 32.7660540297445 0  -7.829245829587862 32.53206659138158 0  -5.119233698187752 33.01864026428565 0  -5.621356886542771 32.31480450446327 0  -5.117620580199615 32.52112111626958 0  -5.115636481720925 32.01803545650698 0  -5.622981763585437 32.8152842891135 0  -6.126703471715968 32.60925057117055 0  -5.19755763048729 54.01775096106436 0  -5.773148005040382 54.75442381721476 0  -5.771598746922254 54.25516785208956 0  -6.345383256074773 54.489978739372 0  -5.199393590280918 54.51908271882361 0  -5.200985047526489 55.01792677324853 0  -9 54.99999999998974 0  -8.496226114071968 54.29915453845508 0  -9 54.49999999998872 0  -9 53.99999999998769 0  -8.496472594761494 54.7990795212292 0  -7.99275020382048 54.59818345995691 0  -9 39.99999999995897 0  -8.419194002482987 40.74099060762111 0  -8.418916182334943 40.24099469345119 0  -7.838098020928443 40.48193710132718 0  -9 40.49999999996 0  -9 40.99999999996102 0  -5.148761280210292 41.01647084853089 0  -5.701651040003259 40.28556086926793 0  -5.147160256245876 40.51915700918987 0  -5.145334783319339 40.0185537441488 0  -5.703220390879024 40.7852818092526 0  -6.257707787961587 40.55106944838396 0  -9 55.99999999999179 0  -8.45165342441579 56.74655632186612 0  -8.451410106171791 56.2465087614877 0  -7.903074872845936 56.49301710383875 0  -9 56.49999999999282 0  -9 56.99999999999384 0  -5.205055864167806 56.01694071785801 0  -5.755940441100968 56.76033574766856 0  -5.7544178164607 56.26026232927869 0  -6.303467403266699 56.50143800198733 0  -5.207005491581562 56.51965417417269 0  -5.208592633365312 57.017984854135 0  -7.498575176215255 43.00977266603911 0  -6.684099524740996 43.12343904327474 0  -7.269947683149212 43.34876893873518 0  -7.041462710652278 43.68777813549303 0  -6.912579906951172 42.78433520614657 0  -6.326338675423765 42.55890463595382 0  -6.671128103007387 49.01846881145818 0  -7.481057854178531 48.90376406662845 0  -6.898292161024583 48.67934299657959 0  -7.125622874187714 48.34016055971917 0  -7.253743042530145 49.24285391114741 0  -7.836091434523836 49.46737095734807 0  -6.664391204349011 46.01734375554135 0  -7.476666171691344 45.90303474459261 0  -6.892242743702777 45.67801191090773 0  -7.120249352341267 45.33876964952788 0  -7.248669386486067 46.24226331229222 0  -7.832698212407148 46.46711816757586 0  -6.577498195770755 7.01794207872981 0  -7.420001223842251 6.903509378287219 0  -6.813858549791987 6.678806562908245 0  -7.050374863313374 6.339674999436573 0  -7.183494903603244 7.242637699818828 0  -7.789244010565754 7.467320942361607 0  -7.479850325308854 30.00966262697435 0  -6.655207629740763 30.12319247642015 0  -7.248373668355025 30.34839254920504 0  -7.017044415776323 30.68706173140217 0  -6.886538971430404 29.7844045472019 0  -6.292973734709513 29.5592439393961 0  -6.571142020748225 4.017078322591601 0  -7.416185966186099 4.119314178658011 0  -6.809417757319558 4.352895118442471 0  -7.047567171635676 4.688656063202766 0  -7.178045136348069 3.783518950024296 0  -7.785161558600309 3.550070933609773 0  -6.584023159517488 10.01809325741127 0  -7.42455587916305 10.11999292442209 0  -6.82106285334662 10.35368412676722 0  -7.057969336505765 10.68927602986306 0  -7.187636866657134 9.784419253983614 0  -7.791506058232911 9.550723239745956 0  -6.590566062595151 13.018257152474 0  -7.428512672066986 12.90376299272942 0  -6.825637853645978 12.67912758730549 0  -7.060864606867072 12.34000346629512 0  -7.193289607086607 13.24291304708795 0  -7.795772619566407 13.46751867582643 0  -6.597152095605798 16.01853631481925 0  -7.432818470579198 15.90384561448535 0  -6.83157698819656 15.67942756098942 0  -7.0661614314523 15.3402735045569 0  -7.198247964589817 16.24293287545219 0  -7.799087302505432 16.46743379660192 0  -6.603939287374259 19.016602901222 0  -7.437563561023599 19.11882608907903 0  -6.839094528053755 19.35189331517669 0  -7.074089353888232 19.68728885819768 0  -7.202554352379553 18.78337609020754 0  -7.801440272934572 18.55010161581395 0  -6.621809813140433 27.01598326927019 0  -7.449220238485564 27.11843853727377 0  -6.855186223976477 27.35162494474223 0  -7.088421764624429 27.68729191687829 0  -7.215982430579576 26.78267261324284 0  -7.810402746319165 26.54950758505938 0  -8.281616202755961 19.09879186840798 0  -8.041591612141197 18.82441936208506 0  -8.400565395080857 18.27509922957357 0  -8.640620175567964 18.54947196323313 0  -9 17.99999999998495 0  -8.286978459886244 27.0985967493338 0  -8.048751423650151 26.82405439518545 0  -8.405051548299459 26.27473771146634 0  -8.643307428073975 26.54929505769386 0  -9 25.99999999995395 0  -8.279455502832112 15.91159871698816 0  -8.039209282304341 16.18952609528535 0  -8.399694757964582 16.73367797336216 0  -8.639910793848118 16.4557710582876 0  -9 16.99999999998883 0  -5.819826836230213 30.11501805252485 0  -6.056334591362428 29.83711188737871 0  -5.699016382013675 29.2923320659739 0  -5.462496911284069 29.57105313643126 0  -5.104332530475796 29.01724455777748 0  -8.277473100702894 12.91159102198168 0  -8.036561951648212 13.18955123341119 0  -8.398033186138438 13.73376688271451 0  -8.638916239498515 13.45580389431667 0  -9 13.99999999999401 0  -8.275635689056848 10.09933875086935 0  -8.033630228846873 9.825031685418139 0  -8.395604946004658 9.275358831073937 0  -8.637640371276023 9.549665956141503 0  -9 8.99999999999857 0  -8.271800409233279 4.099017422643203 0  -8.028534433033094 3.824558513970947 0  -8.392462049789893 3.275010446813684 0  -8.635743875369949 3.549472942094833 0  -9 2.999999999998668 0  -8.273562070215238 6.911464124412893 0  -8.031342414328627 7.189389116394285 0  -8.394768220975878 7.733665555645862 0  -8.636959045415464 7.455742580753918 0  -9 7.999999999999485 0  -8.299614678173187 45.91124536345732 0  -8.06609501507022 46.18916144231445 0  -8.416498749107998 46.73359096131652 0  -8.649988801661692 46.45567670148179 0  -9 46.99999999997333 0  -8.301635403579168 48.91155141114306 0  -8.068799336578218 49.18947112985475 0  -8.418200904004424 49.73364477496661 0  -8.651006037079936 49.45575032519285 0  -9 49.99999999997949 0  -5.859044999417896 43.11523071358297 0  -6.092624745660344 42.83706385671407 0  -5.739705341859911 42.29175373650232 0  -5.50612130776602 42.57083211333327 0  -5.152313201714372 42.01653433276856 0  -5.796726343177743 23.93764116274543 0  -6.040859322244098 24.20350879888931 0  -5.687408807831018 24.74737230178717 0  -6.284860552483559 24.46943476275908 0  -5.443382665928677 24.48232236238674 0  -5.090001741791526 25.0171254912608 0  -8.308359607116381 52.08850981293502 0  -8.071161361458243 51.82253562455394 0  -8.416757283138827 51.27835369406537 0  -7.833835751330919 51.55661053774373 0  -8.653991148410217 51.54432688085883 0  -9 50.99999999998153 0  -5.839311533629565 38.10476444460816 0  -6.078713856805821 37.83504906182545 0  -5.726394378742884 37.29504112733478 0  -6.318244507028503 37.56538736118515 0  -5.486977865694814 37.56574443402926 0  -5.133750439722298 37.01576474440955 0  -5.829742329724424 34.93747594767825 0  -6.071380349464449 35.20321934696409 0  -5.721611470689133 35.74686541080672 0  -6.312887011852514 35.46901771931746 0  -5.480068875412955 35.48206410425433 0  -5.130397757086557 36.01631849415298 0  -7.935110520257166 50.50820138624574 0  -7.884445008891571 51.03242800079652 0  -8.467687128389992 50.75405499949533 0  -6.211813448447024 36.51703096412665 0  -6.265048075198953 37.04110225217805 0  -5.67288052323065 36.76944780501366 0  -6.262324948970758 35.99290841324716 0  -5.671291682052568 36.26924768246563 0  -6.045537502658484 25.27869611955789 0  -6.165162688934611 24.87410128140684 0  -5.567916768312971 25.151065834785 0  -8.050060956288393 25.75201625660929 0  -7.930187356492444 26.15076128975536 0  -8.525085751351449 25.87601102659094 0  -7.006399491990061 34.38848979857526 0  -6.65946220699749 34.92885481368494 0  -6.908939886217373 35.25170369320199 0  -7.255900206883084 34.71148299024147 0  -7.505245298491753 35.03444524611519 0  -7.150935568883846 52.63665530088803 0  -7.492197430128643 52.09672626505845 0  -7.246867967513722 51.77414548636735 0  -6.905624441255805 52.3141286129248 0  -6.66015145323001 51.9916511435678 0  -7.014476316316471 38.63657454924274 0  -6.666541644612607 38.10108099216932 0  -6.913969005357963 37.77485529526897 0  -7.261886304343274 38.31050270240169 0  -7.509450435868194 37.98439256962792 0  -6.985651687836415 23.38858176725126 0  -6.6350780858789 23.92907085839833 0  -6.887135826338561 24.25199865503485 0  -7.237734946541527 23.71163138096729 0  -7.489664306657162 24.0346325459027 0  -7.901333913316681 17.50808815565541 0  -7.85135995322663 18.02912084084803 0  -8.450796302326609 17.75399719074257 0  -7.85023427347577 16.98777040921031 0  -8.45053781750277 17.25407011979256 0  -7.892286435298614 8.508273153593388 0  -7.841873199291696 9.029499860959284 0  -8.446266208863701 8.754138381255679 0  -7.933797603893667 2.422785417592309 0  -7.859430357423427 2.986406413673231 0  -8.467014518771917 2.711416834779488 0  -7.840789603742437 7.987801570383665 0  -8.446017657809675 8.254130766233649 0  -7.885626045295076 49.98779642227434 0  -8.467422317702541 50.25412796926052 0  -6.138990694169828 41.6098205620866 0  -6.232708525942508 42.08443923182043 
[...]
<PointData  Vectors="f_27"> 
<DataArray  type="Float64"  Name="f_27"  NumberOfComponents="3" format="ascii">0.0000000000000000e+00 0.0000000000000000e+00 0.0000000000000000e+00  8.7544194643706877e-06 -1.1802151467572590e-02 0.0000000000000000e+00  0.0000000000000000e+00 0.0000000000000000e+00 0.0000000000000000e+00  0.0000000000000000e+00 0.0000000000000000e+00 0.0000000000000000e+00  -5.0820630077613735e-06 -1.6546271914061224e-02 0.0000000000000000e+00  1.6944468634907961e-05 -1.7018469484040795e-02 0.0000000000000000e+00  0.0000000000000000e+00 0.0000000000000000e+00 0.0000000000000000e+00  4.0627572498720579e-05 -1.2014993817652881e-02 0.0000000000000000e+00  0.0000000000000000e+00 0.0000000000000000e+00 0.0000000000000000e+00  0.0000000000000000e+00 0.0000000000000000e+00 0.0000000000000000e+00  8.6188547400107687e-05 -1.6496963851723615e-02 0.0000000000000000e+00  6.5711593555095748e-05 -1.7085763847725886e-02 0.0000000000000000e+00  0.0000000000000000e+00 0.0000000000000000e+00 0.0000000000000000e+00  4.1025585978546903e-05 -1.1696839177344001e-02 0.0000000000000000e+00  0.0000000000000000e+00 0.0000000000000000e+00 0.0000000000000000e+00  0.0000000000000000e+00 0.0000000000000000e+00 0.0000000000000000e+00  8.6737939825725632e-05 -1.6378247892561985e-02 0.0000000000000000e+00  6.9518030846201957e-05 -1.6968563281069878e-02 0.0000000000000000e+00  0.0000000000000000e+00 0.0000000000000000e+00 0.0000000000000000e+00  1.6773426283077397e-05 -1.2295213011974018e-02 0.0000000000000000e+00  0.0000000000000000e+00 0.0000000000000000e+00 0.0000000000000000e+00  0.0000000000000000e+00 0.0000000000000000e+00 0.0000000000000000e+00  2.2644327471681660e-05 -1.6459942509189456e-02 0.0000000000000000e+00  3.5759235138982972e-05 -1.7022266223278744e-02 0.0000000000000000e+00  0.0000000000000000e+00 0.0000000000000000e+00 0.0000000000000000e+00  2.9707497063378334e-05 -1.2059479753440247e-02 0.0000000000000000e+00  6.9714175230176266e-05 -1.6173188332434696e-02 0.0000000000000000e+00  5.6837685686850660e-05 -1.6739242813733800e-02 0.0000000000000000e+00  0.0000000000000000e+00 0.0000000000000000e+00 0.0000000000000000e+00  0.0000000000000000e+00 0.0000000000000000e+00 0.0000000000000000e+00  0.0000000000000000e+00 0.0000000000000000e+00 0.0000000000000000e+00  3.8306073745095014e-05 -1.2038840515789311e-02 0.0000000000000000e+00  0.0000000000000000e+00 0.0000000000000000e+00 0.0000000000000000e+00  0.0000000000000000e+00 0.0000000000000000e+00 0.0000000000000000e+00  5.6530558486477092e-05 -1.6341171768122588e-02 0.0000000000000000e+00  5.6286296528670809e-05 -1.6792036504240365e-02 0.0000000000000000e+00  0.0000000000000000e+00 0.0000000000000000e+00 0.0000000000000000e+00  3.4323585454928016e-05 -1.1599072672409904e-02 0.0000000000000000e+00  2.3016105413142382e-05 -1.6311473527288203e-02 0.0000000000000000e+00  4.0117598971449990e-05 -1.6889798220670871e-02 0.0000000000000000e+00  0.0000000000000000e+00 0.0000000000000000e+00 0.0000000000000000e+00  0.0000000000000000e+00 0.0000000000000000e+00 0.0000000000000000e+00  0.0000000000000000e+00 0.0000000000000000e+00 0.0000000000000000e+00  2.9339748158065792e-05 -1.1806650920651902e-02 0.0000000000000000e+00  0.0000000000000000e+00 0.0000000000000000e+00 0.0000000000000000e+00  0.0000000000000000e+00 0.0000000000000000e+00 0.0000000000000000e+00  2.0687370515745953e-05 -1.6505616930208456e-02 0.0000000000000000e+00  3.5568279385247226e-05 -1.6927880767417511e-02 0.0000000000000000e+00  0.0000000000000000e+00 0.0000000000000000e+00 0.0000000000000000e+00  5.4205880897478415e-05 -1.2493242531977809e-02 0.0000000000000000e+00  3.7668644398651707e-05 -1.6230202982017682e-02 0.0000000000000000e+00  5.8488479032865905e-05 -1.6761307071915900e-02 0.0000000000000000e+00  0.0000000000000000e+00 0.0000000000000000e+00 0.0000000000000000e+00  0.0000000000000000e+00 0.0000000000000000e+00 0.0000000000000000e+00  0.0000000000000000e+00 0.0000000000000000e+00 0.0000000000000000e+00  2.2742082194407185e-05 -1.2503165391583800e-02 0.0000000000000000e+00  5.5528502053013828e-05 -1.6230055244360365e-02 0.0000000000000000e+00  4.3129878309299110e-05 -1.6753936737701102e-02 0.0000000000000000e+00  0.0000000000000000e+00 0.0000000000000000e+00 0.0000000000000000e+00  0.0000000000000000e+00 0.0000000000000000e+00 0.0000000000000000e+00  7.8590704960176909e-05 -1.7358445040080790e-02 0.0000000000000000e+00  8.7849863316211182e-05 -1.7373239317728197e-02 0.0000000000000000e+00  7.7797763655737564e-05 -1.7372656415016036e-02 0.0000000000000000e+00  7.3912703958132678e-05 -1.7371971922567786e-02 0.0000000000000000e+00  8.2682700829122199e-05 -1.7371818616337187e-02 0.0000000000000000e+00  7.7501995401010927e-05 -1.7314114898310713e-02 0.0000000000000000e+00  1.0133351381263195e-04 -1.7282573545421190e-02 0.0000000000000000e+00  9.4300239420810422e-05 -1.7279375185795271e-02 0.0000000000000000e+00  1.0229735765041559e-04 -1.7302821081604452e-02 0.0000000000000000e+00  9.9754598783799298e-05 -1.7297212798557768e-02 0.0000000000000000e+00  9.3122358445961247e-05 -1.7294285277571261e-02 0.0000000000000000e+00  8.0795869764565926e-05 -1.7229142422124456e-02 0.0000000000000000e+00  8.6575147930977842e-05 -1.7322375281286630e-02 0.0000000000000000e+00  7.6069318487235926e-05 -1.7330587798908115e-02 0.0000000000000000e+00  7.8604701376047662e-05 -1.7339042695921555e-02 0.0000000000000000e+00  6.9914851736113356e-05 -1.7345617746721997e-02 0.0000000000000000e+00  8.1875544630826506e-05 -1.7327114012647051e-02 0.0000000000000000e+00  7.2545238947300129e-05 -1.7255556556154135e-02 0.0000000000000000e+00  8.3980354686261039e-05 -1.7691670567677942e-02 0.0000000000000000e+00  7.5352182155808103e-05 -1.7705193857027072e-02 0.0000000000000000e+00  7.9958749099723071e-05 -1.7711409122944374e-02 0.0000000000000000e+00  8.0072149551645538e-05 -1.7716143355711887e-02 0.0000000000000000e+00  7.6854976022852051e-05 -1.7704663192223295e-02 0.0000000000000000e+00  6.6325227595310273e-05 -1.7641631763598505e-02 0.0000000000000000e+00  7.2229788749816765e-05 -1.7477284509271381e-02 0.0000000000000000e+00  8.8024419047468515e-05 -1.7468090662862402e-02 0.0000000000000000e+00  7.3436649476790253e-05 -1.7495079747615723e-02 0.0000000000000000e+00  7.1184709012634602e-05 -1.7481022960733734e-02 0.0000000000000000e+00  8.0714240924954628e-05 -1.7485451321014842e-02 0.0000000000000000e+00  7.9954158164431300e-05 -1.7417653850786200e-02 0.0000000000000000e+00  9.3049968363570913e-05 -1.7734761203852412e-02 0.0000000000000000e+00  8.4775495458916421e-05 -1.7730167920648503e-02 0.0000000000000000e+00  8.9069461854784503e-05 -1.7741055021310955e-02 0.0000000000000000e+00  8.5275679152747264e-05 -1.7735995473371229e-02 0.0000000000000000e+00  8.6477121966267441e-05 -1.7734970475479048e-02 0.0000000000000000e+00  8.5941435520994034e-05 -1.7671083142525974e-02 0.0000000000000000e+00  9.1433394469803288e-05 -1.7674499719605573e-02 0.0000000000000000e+00  8.5116928558593585e-05 -1.7676268592859513e-02 0.0000000000000000e+00  8.5674644477528290e-05 -1.7682373633612348e-02 0.0000000000000000e+00  8.3132331823971677e-05 -1.7678436147789651e-02 0.0000000000000000e+00  9.0860061595753936e-05 -1.7681739891286859e-02 0.0000000000000000e+00  9.4538136342261288e-05 -1.7612944091161972e-02 0.0000000000000000e+00  8.2743915539154869e-05 -1.7635562584650058e-02 0.0000000000000000e+00  7.6474787404129380e-05 -1.7650077236414621e-02 0.0000000000000000e+00  7.9695786505541577e-05 -1.7655708758799325e-02 0.0000000000000000e+00  8.0615932754636224e-05 -1.7660614123581934e-02 0.0000000000000000e+00  7.6772776151368846e-05 -1.7647366444609944e-02 0.0000000000000000e+00  6.8107336721071941e-05 -1.7579898811102786e-02 0.0000000000000000e+00  9.6159067484324646e-05 -1.7610265692650413e-02 0.0000000000000000e+00  8.9063670651511265e-05 -1.7606288239037558e-02 0.0000000000000000e+00  9.6847899636736027e-05 -1.7629339885253739e-02 0.0000000000000000e+00  9.4125595553887413e-05 -1.7622895032477270e-02 0.0000000000000000e+00  8.7790227884596039e-05 -1.7622505821168706e-02 0.0000000000000000e+00  7.5740745792188534e-05 -1.7557526716748213e-02 0.0000000000000000e+00  1.0882192696442141e-04 -1.7572271859688789e-02 0.0000000000000000e+00  8.7290426161042625e-05 -1.7577803865501472e-02 0.0000000000000000e+00  9.9701340990282979e-05 -1.7596245362910715e-02 0.0000000000000000e+00  8.3684264359309719e-05 -1.7582317176379796e-02 0.0000000000000000e+00  9.7999692313762126e-05 -1.7596039394276924e-02 0.0000000000000000e+00  9.6757750613302073e-05 -1.7530702389597773e-02 0.0000000000000000e+00  1.0276014130095885e-04 -1.7505816719752806e-02 0.0000000000000000e+00  8.7160206519045353e-05 -1.7519473924843074e-02 0.0000000000000000e+00  9.7214534476782312e-05 -1.7523472648795297e-02 0.0000000000000000e+00  8.4929646434738203e-05 -1.7514196491088041e-02 0.0000000000000000e+00  8.9557923492109522e-05 -1.7521387742365401e-02 0.0000000000000000e+00  8.5221695347145371e-05 -1.7461760150637461e-02 0.0000000000000000e+00  6.4847248441925165e-05 -1.6482223308374195e-02 0.0000000000000000e+00  8.5574023715543910e-05 -1.7424852403715840e-02 0.0000000000000000e+00  9.7554531915168820e-05 -1.6682102662420598e-02 0.0000000000000000e+00  6.1825054745982499e-05 -1.1843930146881941e-02 0.0000000000000000e+00  0.0000000000000000e+00 0.0000000000000000e+00 0.0000000000000000e+00  6.7151684748939335e-05 -1.6412110663911707e-02 0.0000000000000000e+00  7.7230993014045548e-05 -1.7345235399222093e-02 0.0000000000000000e+00  8.1006190482002204e-05 -1.6608921863279440e-02 0.0000000000000000e+00  5.4160049524855980e-05 -1.1755304778906609e-02 0.0000000000000000e+00  0.0000000000000000e+00 0.0000000000000000e+00 0.0000000000000000e+00  7.1801840087412909e-05 -1.6522593896822414e-02 0.0000000000000000e+00  6.6241047240590283e-05 -1.7440348043778291e-02 0.0000000000000000e+00  5.1644028932603033e-05 -1.6800895427476519e-02 0.0000000000000000e+00  3.0089180107640695e-05 -1.1742854322012284e-02 0.0000000000000000e+00  0.0000000000000000e+00 0.0000000000000000e+00 0.0000000000000000e+00  8.8838037239730795e-05 -1.6369660083737522e-02 0.0000000000000000e+00  1.2235186114264890e-04 -1.7298159670946500e-02 0.0000000000000000e+00  5.4115633298341753e-05 -1.6622106976162582e-02 0.0000000000000000e+00  3.9584200850723327e-05 -1.1777639833453080e-02 0.0000000000000000e+00  0.0000000000000000e+00 0.0000000000000000e+00 0.0000000000000000e+00  7.0150664860633546e-05 -1.6538902496969776e-02 0.0000000000000000e+00  6.5412785839257250e-05 -1.7466345393655922e-02 0.0000000000000000e+00  5.3112012400073802e-05 -1.6727956268888490e-02 0.0000000000000000e+00  3.9514796894607141e-05 -1.1876999178273680e-02 0.0000000000000000e+00  0.0000000000000000e+00 0.0000000000000000e+00 0.0000000000000000e+00  7.4298693155656082e-05 -1.6562502726261630e-02 0.0000000000000000e+00  8.8146297473105711e-05 -1.7498454780175966e-02 0.0000000000000000e+00  9.8315516187833183e-05 -1.6752576374336716e-02 0.0000000000000000e+00  6.5300789763135425e-05 -1.1918342518713593e-02 0.0000000000000000e+00  0.0000000000000000e+00 0.0000000000000000e+00 0.0000000000000000e+00  7.4074127534002045e-05 -1.6634558247968102e-02 0.0000000000000000e+00  8.3756039467151243e-05 -1.7543954429534589e-02 0.0000000000000000e+00  9.0960428935791884e-05 -1.6908517946739962e-02 0.0000000000000000e+00  6.7940812474340088e-05 -1.1855391730950538e-02 0.0000000000000000e+00  0.0000000000000000e+00 0.0000000000000000e+00 0.0000000000000000e+00  6.2007314565189087e-05 -1.6613960787551885e-02 0.0000000000000000e+00  5.7433757584795533e-05 -1.7519854054940699e-02 0.0000000000000000e+00  4.5437166579107928e-05 -1.6875038303228052e-02 0.0000000000000000e+00  2.5720016375005269e-05 -1.1824226976761672e-02 0.0000000000000000e+00  0.0000000000000000e+00 0.0000000000000000e+00 0.0000000000000000e+00  7.2170433287295767e-05 -1.6202398073917559e-02 0.0000000000000000e+00  6.8547657785074747e-05 -1.7136471910763462e-02 0.0000000000000000e+00  5.7542815218470785e-05 -1.6413116776307298e-02 0.0000000000000000e+00  4.1154116055585951e-05 -1.1548857197836162e-02 0.0000000000000000e+00  0.0000000000000000e+00 0.0000000000000000e+00 0.0000000000000000e+00  7.5763173866366995e-05 -1.6186740542909708e-02 0.0000000000000000e+00  7.1304259712540611e-05 -1.7108789383063865e-02 0.0000000000000000e+00  5.7208905654590037e-05 -1.6482148835184087e-02 0.0000000000000000e+00  3.4025132290004269e-05 -1.1417044460097189e-02 0.0000000000000000e+00  0.0000000000000000e+00 0.0000000000000000e+00 0.0000000000000000e+00  8.6225368641720213e-05 -1.6260701961467415e-02 0.0000000000000000e+00  1.1985810859081755e-04 -1.7191888441753816e-02 0.0000000000000000e+00  4.3927875715201669e-05 -1.6516462187780422e-02 0.0000000000000000e+00  3.7844169422661846e-05 -1.1666394375993681e-02 0.0000000000000000e+00  0.0000000000000000e+00 0.0000000000000000e+00 0.0000000000000000e+00  9.3809918258356230e-05 -1.6503805309371025e-02 0.0000000000000000e+00  1.2791788028686149e-04 -1.7386677898456989e-02 0.0000000000000000e+00  7.8218602633447581e-05 -1.6576222945005995e-02 0.0000000000000000e+00  9.2059563948016778e-05 -1.7481519820948151e-02 0.0000000000000000e+00  5.6319884711023687e-05 -1.1749240124874607e-02 0.0000000000000000e+00  0.0000000000000000e+00 0.0000000000000000e+00 0.0000000000000000e+00  7.3248167244545524e-05 -1.6216340671750054e-02 0.0000000000000000e+00  8.9720442807440402e-05 -1.7098341210991866e-02 0.0000000000000000e+00  9.8503543113697843e-05 -1.6360992072617722e-02 0.0000000000000000e+00  9.5188999071471112e-05 -1.7192436020407865e-02 0.0000000000000000e+00  6.2088897161149888e-05 -1.1551751355656694e-02 0.0000000000000000e+00  0.0000000000000000e+00 0.0000000000000000e+00 0.0000000000000000e+00  9.0994908663038628e-05 -1.6372594639438673e-02 0.0000000000000000e+00  1.1275948943674230e-04 -1.7233710692466445e-02 0.0000000000000000e+00  3.2909234072810511e-05 -1.6554241588867761e-02 0.0000000000000000e+00  7.2757738738435246e-05 -1.7335927987612531e-02 0.0000000000000000e+00  3.8866993378603751e-05 -1.1762434370669929e-02 0.0000000000000000e+00  0.0000000000000000e+00 0.0000000000000000e+00 0.0000000000000000e+00  1.0790484587764773e-04 -1.6416189751462227e-02 0.0000000000000000e+00  1.4387642008654072e-04 -1.7269352979677077e-02 0.0000000000000000e+00  8.6088071557994861e-05 -1.6586858765118440e-02 0.0000000000000000e+00  1.0034363437015944e-04 -1.7377562244571883e-02 0.0000000000000000e+00  6.9941127129557925e-05 -1.1516858604614389e-02 0.0000000000000000e+00  0.0000000000000000e+00 0.0000000000000000e+00 0.0000000000000000e+00  8.3463964471007071e-05 -1.6546661637581676e-02 0.0000000000000000e+00  9.6903571964941884e-05 -1.7199179589769503e-02 0.0000000000000000e+00  1.0257625685560234e-04 -1.5934890059906569e-02 0.0000000000000000e+00  1.6790209193775499e-05 -1.6693257360283868e-02 0.0000000000000000e+00  4.5204564005711488e-05 -1.7342052989924625e-02 0.0000000000000000e+00  -4.3519841467935086e-05 -1.6088100651992496e-02 0.0000000000000000e+00  7.6222579273668505e-05 -1.7285943782117903e-02 0.0000000000000000e+00  -2.2284432097507730e-05 -1.1121178310349174e-02 0.0000000000000000e+00  3.5643145902642796e-05 -1.6985148836753148e-02 0.0000000000000000e+00  7.2050317030375303e-05 -1.7471296145437236e-02 0.0000000000000000e+00  8.0080146402754644e-06 -1.6300148651789050e-02 0.0000000000000000e+00  7.5151623996000906e-05 -1.6910858931328029e-02 0.0000000000000000e+00  7.9766274931741729e-05 -1.7450313461004785e-02 0.0000000000000000e+00  8.2593074222247950e-05 -1.6279015003665843e-02 0.0000000000000000e+00  8.9603775558505915e-05 -1.7449893372262590e-02 0.0000000000000000e+00  1.0561692185580966e-04 -1.7428432006839877e-02 0.0000000000000000e+00  9.1979994945865667e-05 -1.7448905129764197e-02 0.0000000000000000e+00  9.1411651782890012e-05 -1.7451556151708118e-02 0.0000000000000000e+00  8.3490862544781708e-05 -1.7432710323633756e-02 0.0000000000000000e+00  9.1177239422154382e-05 -1.7239476012104453e-02 0.0000000000000000e+00  8.3732605808769324e-05 -1.7224421375883307e-02 0.0000000000000000e+00  9.4105755529729933e-05 -1.7259564185809317e-02 0.0000000000000000e+00  9.7074218445053698e-05 -1.7256504500499165e-02 0.0000000000000000e+00  9.6400141364822475e-05 -1.7231719202516559e-02 0.0000000000000000e+00  7.9989550745299039e-05 -1.7407236591918847e-02 0.0000000000000000e+00  9.5958117751701461e-05 -1.7385804747668671e-02 0.0000000000000000e+00  7.8263834021562471e-05 -1.7408544780716503e-02 0.0000000000000000e+00  7.9791739378421982e-05 -1.7413783954186701e-02 0.0000000000000000e+00  7.0796587752839716e-05 -1.7400768700946034e-02 0.0000000000000000e+00  8.1558865670293214e-05 -1.7555696861182885e-02 0.0000000000000000e+00  9.5939852444285913e-05 -1.7539296305012043e-02 0.0000000000000000e+00  8.3383732961083427e-05 -1.7554857775487997e-02 0.0000000000000000e+00  8.3192433842284010e-05 -1.7556136858295494e-02 0.0000000000000000e+00  7.3844985566063216e-05 -1.7529105394786436e-02 0.0000000000000000e+00  8.1045123622160950e-05 -1.6877142869189524e-02 0.0000000000000000e+00  9.6409875644603123e-05 -1.7532215331546700e-02 0.0000000000000000e+00  1.0292987993594367e-04 -1.6269396692042918e-02 0.0000000000000000e+00  6.8553283335790098e-05 -1.7472946795901494e-02 0.0000000000000000e+00  4.3874564651631503e-05 -1.1273631108709681e-02 0.0000000000000000e+00  7.7607313408612082e-05 -1.6957077479502720e-02 0.0000000000000000e+00  9.3738221248696992e-05 -1.7609723611149316e-02 0.0000000000000000e+00  1.0229173822440089e-04 -1.6343911204834111e-02 0.0000000000000000e+00  7.4349200487606757e-05 -1.7120580924123958e-02 0.0000000000000000e+00  8.2666716979583774e-05 -1.7598687810308846e-02 0.0000000000000000e+00  5.0481489876764384e-05 -1.1489384388661214e-02 0.0000000000000000e+00  6.2162419255835743e-05 -1.7552560809939000e-02 0.0000000000000000e+00  4.1829880863465728e-05 -1.1341681873279112e-02 0.0000000000000000e+00  7.2932922904050937e-05 -1.7141199121942122e-02 0.0000000000000000e+00  4.6375190883649608e-05 -1.0987944563447143e-02 0.0000000000000000e+00  7.8309480957808165e-06 -1.6747275473983581e-02 0.0000000000000000e+00  5.5211064605380572e-05 -1.7318887429223453e-02 0.0000000000000000e+00  -2.9471395378217477e-05 -1.6071667789267753e-02 0.0000000000000000e+00  7.1764055557862509e-05 -1.7548058609157865e-02 0.0000000000000000e+00  7.9021808472691532e-05 -1.7558087977011385e-02 0.0000000000000000e+00  7.4825900960313614e-05 -1.7553413337322271e-02 0.0000000000000000e+00  9.4383169948411607e-05 -1.7270485534224774e-02 0.0000000000000000e+00  9.6009932785524164e-05 -1.7274922260664054e-02 0.0000000000000000e+00  9.3540540196664692e-05 -1.7267372366902779e-02 0.0000000000000000e+00  6.6961901526280682e-05 -1.7416448860217343e-02 0.0000000000000000e+00  6.6631226021731231e-05 -1.7415347636251587e-02 0.0000000000000000e+00  7.1998129896279711e-05 -1.7418050487667171e-02 0.0000000000000000e+00  7.9780799434370846e-05 -1.7444699720865091e-02 0.0000000000000000e+00  8.5534432047366035e-05 -1.7448172664648969e-02 0.0000000000000000e+00  8.4501392024231812e-05 -1.7448526083522931e-02 0.0000000000000000e+00  1.8233205880327445e-05 -1.6888769311783000e-02 0.0000000000000000e+00  5.9736084841279014e-05 -1.7417439417912635e-02 0.0000000000000000e+00  -2.7792720563540385e-05 -1.6223104645768590e-02 0.0000000000000000e+00  8.0399966775284652e-05 -1.7309618076941768e-02 0.0000000000000000e+00  9.5617799055940965e-05 -1.7295979865433592e-02 0.0000000000000000e+00  8.1704017643629046e-05 -1.7377043587351985e-02 0.0000000000000000e+00  9.5343878280260814e-05 -1.6839546643619273e-02 0.0000000000000000e+00  8.7576483495858452e-05 -1.7196192311329676e-02 0.0000000000000000e+00  9.7237726115061555e-05 -1.7279831675841722e-02 0.0000000000000000e+00  7.4135875753470522e-05 -1.7271849317299505e-02 0.0000000000000000e+00  7.4495776652861866e-05 -1.7243855544860128e-02 0.0000000000000000e+00  7.3170318876290166e-05 -1.7333713831658420e-02 0.000