<?xml version="1.0"?>
<VTKFile type="UnstructuredGrid"  version="0.1"  >
<UnstructuredGrid>
<Piece  NumberOfPoints="2690" NumberOfCells="4864">
<Points>
<DataArray  type="Float64"  NumberOfComponents="3"  format="ascii">-5.040855332413629 22.00897197658692 0  -5.636734613693354 21.27156042546102 0  -5.04004094630476 21.5097082038868 0  -5.039101939565007 21.00902720391796 0  -5.637533285439349 21.77172190123903 0  -6.234234532377454 21.53302287139891 0  -9 21.99999999996945 0  -8.402839749604102 21.26437492283554 0  -9 21.49999999997139 0  -9 20.99999999997333 0  -8.402981737315445 21.76436442039796 0  -7.80582952179168 21.52870548730953 0  -9 32.9999999999446 0  -8.405956453308015 32.26434581941984 0  -9 32.49999999994358 0  -9 31.99999999994255 0  -8.406098451759762 32.76434844362304 0  -7.812062322059578 32.52867578920449 0  -5.06154180598385 33.00970282297418 0  -5.572155281248494 32.30595850937932 0  -5.060688111153097 32.51098936902468 0  -5.059703266260907 32.00939267139389 0  -5.572978765394365 32.80620581552442 0  -6.084439348353911 32.60131939994216 0  -5.101434837411007 54.00926461459581 0  -5.690382701574194 54.74633160179407 0  -5.689596465547742 54.24671669862768 0  -6.277660969323399 54.48281259361483 0  -5.102339644702591 54.5099372996433 0  -5.103175293547806 55.00936094133129 0  -9 54.99999999998974 0  -8.483431606976771 54.29769827270415 0  -9 54.49999999998872 0  -9 53.99999999998769 0  -8.483555264617657 54.79766030794126 0  -7.96701210951827 54.59533274005086 0  -9 39.99999999995897 0  -8.408367515299332 40.73931715820272 0  -8.408225517052553 40.23931902794648 0  -7.816586457711566 40.47861155187104 0  -9 40.49999999996 0  -9 40.99999999996102 0  -5.076638976434969 41.00859630243704 0  -5.640921987680008 40.27706619775287 0  -5.075794144640101 40.50998270318976 0  -5.074881121304717 40.00967860924282 0  -5.641722611190835 40.77692027242242 0  -6.206854893723644 40.54367734538737 0  -9 55.99999999999179 0  -8.437067325658198 56.74500974850107 0  -8.436944906391997 56.24498588185705 0  -7.874018050731836 56.48997097804946 0  -9 56.49999999999282 0  -9 56.99999999999384 0  -5.10522227780161 56.00885511879672 0  -5.669417382590845 56.75220278992192 0  -5.668637828588088 56.25216569572606 0  -6.231929551019295 56.49436677512983 0  -5.106183861621578 56.51023424748838 0  -5.107016316567693 57.00938736727617 0  -7.468937921031954 43.00507842306089 0  -6.638246706874664 43.11610222284475 0  -7.235517074760578 43.34327675145525 0  -7.002170739509453 43.68148246162714 0  -6.871593714704744 42.77784871524102 0  -6.274119192474486 42.55062056522167 0  -6.618408102507573 49.00957797887347 0  -7.446757531169995 48.89801775636681 0  -6.851084867530918 48.67131175976354 0  -7.083842465148669 48.33301730164245 0  -7.214006142457102 49.23626461085362 0  -7.809470316902849 49.46301995365466 0  -6.614954881273457 46.00899819686158 0  -7.444507191100975 45.89764428130189 0  -6.847977753646926 45.67062846309162 0  -7.081078592039048 45.33230505260751 0  -7.211411864984652 46.23596135836684 0  -7.807738503767722 46.46289061457186 0  -6.570346949997988 7.009322979755891 0  -7.415417241272418 6.897899143931608 0  -6.807737602934937 6.67105159226867 0  -7.045206377285277 6.332782507409914 0  -7.177954027516617 7.236167050627324 0  -7.785431638052185 7.463004001651384 0  -7.459362634415498 30.00502115543927 0  -6.623473202471752 30.11597555982213 0  -7.224482554742914 30.34308274444525 0  -6.989678360547796 30.68111362023183 0  -6.858280284181313 29.77788423598431 0  -6.257065534936575 29.55079637074769 0  -6.567029969970368 4.008878047891096 0  -7.413426270753971 4.113963010078602 0  -6.805420473102545 4.345424885802434 0  -7.043741427261021 4.681942275236448 0  -7.175109921998092 3.777427189732419 0  -7.78330142618582 3.546034999331204 0  -6.573732184010954 10.00940474673616 0  -7.417781178351681 10.11431505930227 0  -6.811476230886647 10.34583392363624 0  -7.049148476710423 10.68226336072185 0  -7.180103378010486 9.777894487066002 0  -7.786605615218451 9.546373574007932 0  -6.577125714867209 13.00948551628694 0  -7.419834069836336 12.89803009110612 0  -6.813849150050763 12.67121720425368 0  -7.050650230726594 12.3329520021256 0  -7.183036345681401 13.23630923791467 0  -7.788819658453423 13.4631060843645 0  -6.580534512994421 16.00963070424209 0  -7.422059489407034 15.89807231284009 0  -6.816923157958812 15.67137295182542 0  -7.053390847884922 15.33309198066233 0  -7.185597632106525 16.23631872770963 0  -7.790529484249729 16.46306108236074 0  -6.583993792071976 19.00862467122871 0  -7.424478637306195 19.11370662385463 0  -6.820751564123055 19.34490040326321 0  -7.057429887166761 19.68123038775136 0  -7.187794239254867 18.77734907066037 0  -7.791729829609423 18.54604841104033 0  -6.593154816708354 27.00830215382677 0  -7.430453243357292 27.1135044583659 0  -6.82900792279911 27.3447593871885 0  -7.064786697455083 27.68122954666792 0  -7.194671211061098 26.77698344033021 0  -7.796317170488372 26.54574008112888 0  -8.275606294717042 19.09644198586108 0  -8.033700169641348 18.82123100411017 0  -8.395786428205692 18.27304925715068 0  -8.637707931387153 18.54826026007082 0  -9 17.99999999998495 0  -8.278353979407315 27.09634030199753 0  -8.03736701210021 26.82104130457333 0  -8.398081397482846 26.27286180896698 0  -8.639083392277048 26.54816848382839 0  -9 25.99999999995395 0  -8.274504287908082 15.90895627354024 0  -8.032485111909573 16.18601378135083 0  -8.395342275676635 16.73151017898758 0  -8.637346088884309 16.45446334831492 0  -9 16.99999999998883 0  -5.776773788255289 30.10487067752771 0  -6.016885712256726 29.82782222535888 0  -5.655646554516936 29.28198959225329 0  -5.415516675725521 29.55945965930834 0  -5.053934053215107 29.00895814851236 0  -8.273480444071373 12.90895280647757 0  -8.031118605349631 13.18602755764771 0  -8.39448627477096 13.7315569498085 0  -8.636833254300827 13.45448075306243 0  -9 13.99999999999401 0  -8.272527028542875 10.09672701957352 0  -8.029597319536393 9.821550672389357 0  -8.393226197964468 9.273185300926354 0  -8.636171179931241 9.548361722571089 0  -9 8.99999999999857 0  -8.270531297587905 4.096560406000238 0  -8.026944590538678 3.82130519671056 0  -8.391588720381124 3.273004478735447 0  -8.63518348645888 3.548261584047378 0  -9 2.999999999998668 0  -8.271450582672429 6.908887279095871 0  -8.028409828539351 7.185943854577871 0  -8.392791921337203 7.731504686318671 0  -8.635817534165341 7.454449113419812 0  -9 7.999999999999485 0  -8.28482515994304 45.90876985910987 0  -8.046250215376279 46.18581982795789 0  -8.403946549567346 46.73146156714004 0  -8.642506158856559 46.45441251687794 0  -9 46.99999999997333 0  -8.285859962321044 48.90892605377977 0  -8.047632852788301 49.18597802799207 0  -8.40481368584051 49.73148890492475 0  -8.643025300767226 49.45444999785158 0  -9 49.99999999997949 0  -5.796821541969156 43.10497916413033 0  -6.035435798405019 42.82779578705473 0  -5.676439818187361 42.28168880219982 0  -5.437810076503959 42.55934279759838 0  -5.078457044811951 42.00859582866715 0  -5.762606907759772 23.9273972824657 0  -6.008978299774385 24.19416503182827 0  -5.650876884878209 24.73706703971397 0  -6.255282619357185 24.46096216451995 0  -5.404549260934293 24.47072442501262 0  -5.046584300919219 25.00892312484178 0  -8.291597721740709 52.08618601917284 0  -8.048781770396207 51.8193641738706 0  -8.402870574688841 51.27630848815894 0  -7.805902031029992 51.55256761222685 0  -8.645704516631104 51.54312978698222 0  -9 50.99999999998153 0  -5.7844225841921 38.09462828297774 0  -6.028369487545567 37.82586248453488 0  -5.670847016971771 37.284965266994 0  -6.272382788301265 37.55712880565073 0  -5.426880079123971 37.55423943662893 0  -5.068988860341604 37.00819659250971 0  -5.77953520295007 34.92731021623445 0  -6.02462472303681 35.19401393190591 0  -5.668408123908814 35.73680458064174 0  -6.269647310264657 35.46074601029071 0  -5.423356533216938 35.47058886775323 0  -5.067290935025382 36.00852298079771 0  -7.910183757990495 50.50433884625052 0  -7.858029205464561 51.02846451767919 0  -8.455158317057299 50.75214581551364 0  -6.165553750535976 36.50885914862145 0  -6.218978369618904 37.03293806162634 0  -5.617291416092491 36.7601178325103 0  -6.217588989873808 35.98474532297889 0  -5.61648785303436 36.26002236213007 0  -6.012272952899896 25.26970159159206 0  -6.133757935494351 24.86535172337745 0  -5.529465857366259 25.14094953659798 0  -8.039160043212551 25.74903722599489 0  -7.917715657613828 26.14738836288658 0  -8.519608715102091 25.87452006586587 0  -6.97536369107826 34.38244231550236 0  -6.622412707539406 34.92164443510564 0  -6.87551364438072 35.24531155129286 0  -7.228475636210908 34.70618297092894 0  -7.481508177439596 35.02990778336136 0  -7.105589834481211 52.63062082181566 0  -7.45565243531804 52.09164180554202 0  -7.204678001399782 51.7681134636178 0  -6.85462498767845 52.30711951946989 0  -6.603579464856602 51.98364414992685 0  -6.979490771215999 38.63058175001289 0  -6.626029293825609 38.09390675799275 0  -6.878082617395732 37.76848763005049 0  -7.231534189904692 38.30524065095371 0  -7.483656654242027 37.97988060919653 0  -6.964725034543913 23.38249045032221 0  -6.609912058212437 23.92175710382254 0  -6.864338321484591 24.24546458182617 0  -7.219163003891661 23.70626032728429 0  -7.4735221284163 24.03000506967814 0  -7.892974154478459 17.50420147778688 0  -7.842338708439625 18.02513828961576 0  -8.446553048836146 17.7520762975459 0  -7.841764189407714 16.98363617978152 0  -8.44642116536502 17.25211423284041 0  -7.888295660162158 8.504299539018341 0  -7.837438422704757 9.025337403903483 0  -8.444212027062573 8.752150735625857 0  -7.932582135092916 2.41933235525219 0  -7.857915584920613 2.982672307179115 0  -8.466351907956419 2.709678815498406 0  -7.836876086393264 7.983654125468783 0  -8.444083029114221 8.252146741525365 0  -7.859839860843744 49.98368471125219 0  -8.455024992904027 50.25218324927803 0  -6.084452864285744 41.601800247886 0  -6.17930669774856 42.0762485
[...]
<PointData  Vectors="f_27"> 
<DataArray  type="Float64"  Name="f_27"  NumberOfComponents="3" format="ascii">0.0000000000000000e+00 0.0000000000000000e+00 0.0000000000000000e+00  3.3621806252802769e-06 -8.0486440190975488e-03 0.0000000000000000e+00  0.0000000000000000e+00 0.0000000000000000e+00 0.0000000000000000e+00  0.0000000000000000e+00 0.0000000000000000e+00 0.0000000000000000e+00  -1.0574712427054185e-05 -1.1271405369758736e-02 0.0000000000000000e+00  3.2843511233549628e-06 -1.1597952503170483e-02 0.0000000000000000e+00  0.0000000000000000e+00 0.0000000000000000e+00 0.0000000000000000e+00  1.5609438826337832e-05 -8.1947842001945520e-03 0.0000000000000000e+00  0.0000000000000000e+00 0.0000000000000000e+00 0.0000000000000000e+00  0.0000000000000000e+00 0.0000000000000000e+00 0.0000000000000000e+00  4.2121169242566737e-05 -1.1246271006583580e-02 0.0000000000000000e+00  2.8445568156870024e-05 -1.1645901607303943e-02 0.0000000000000000e+00  0.0000000000000000e+00 0.0000000000000000e+00 0.0000000000000000e+00  1.5056990983452063e-05 -8.0108207710164487e-03 0.0000000000000000e+00  0.0000000000000000e+00 0.0000000000000000e+00 0.0000000000000000e+00  0.0000000000000000e+00 0.0000000000000000e+00 0.0000000000000000e+00  4.1362342454184979e-05 -1.1203290422795333e-02 0.0000000000000000e+00  2.8749986359360547e-05 -1.1603795624716818e-02 0.0000000000000000e+00  0.0000000000000000e+00 0.0000000000000000e+00 0.0000000000000000e+00  4.8800054307770505e-06 -8.4142941265997612e-03 0.0000000000000000e+00  0.0000000000000000e+00 0.0000000000000000e+00 0.0000000000000000e+00  0.0000000000000000e+00 0.0000000000000000e+00 0.0000000000000000e+00  1.3714635371105557e-06 -1.1252140764094719e-02 0.0000000000000000e+00  1.0026381215949282e-05 -1.1635442235301009e-02 0.0000000000000000e+00  0.0000000000000000e+00 0.0000000000000000e+00 0.0000000000000000e+00  1.2382828275059504e-05 -8.3250101564036703e-03 0.0000000000000000e+00  3.8198420063301318e-05 -1.1150725436097561e-02 0.0000000000000000e+00  2.5166737099106275e-05 -1.1533605269784511e-02 0.0000000000000000e+00  0.0000000000000000e+00 0.0000000000000000e+00 0.0000000000000000e+00  0.0000000000000000e+00 0.0000000000000000e+00 0.0000000000000000e+00  0.0000000000000000e+00 0.0000000000000000e+00 0.0000000000000000e+00  1.1952164865375119e-05 -8.3111755782190565e-03 0.0000000000000000e+00  0.0000000000000000e+00 0.0000000000000000e+00 0.0000000000000000e+00  0.0000000000000000e+00 0.0000000000000000e+00 0.0000000000000000e+00  2.0460792440283244e-05 -1.1255722681695892e-02 0.0000000000000000e+00  1.9494602839323884e-05 -1.1563110488220363e-02 0.0000000000000000e+00  0.0000000000000000e+00 0.0000000000000000e+00 0.0000000000000000e+00  1.0803104612895198e-05 -7.9683872873997259e-03 0.0000000000000000e+00  -3.4512356393337372e-06 -1.1182030449807052e-02 0.0000000000000000e+00  8.7678968745349570e-06 -1.1575737519355755e-02 0.0000000000000000e+00  0.0000000000000000e+00 0.0000000000000000e+00 0.0000000000000000e+00  0.0000000000000000e+00 0.0000000000000000e+00 0.0000000000000000e+00  0.0000000000000000e+00 0.0000000000000000e+00 0.0000000000000000e+00  1.5098181901873808e-05 -8.1140258989968721e-03 0.0000000000000000e+00  0.0000000000000000e+00 0.0000000000000000e+00 0.0000000000000000e+00  0.0000000000000000e+00 0.0000000000000000e+00 0.0000000000000000e+00  4.2458322569440506e-06 -1.1310483262221999e-02 0.0000000000000000e+00  1.2775536433268672e-05 -1.1602066544489422e-02 0.0000000000000000e+00  0.0000000000000000e+00 0.0000000000000000e+00 0.0000000000000000e+00  2.2090110900800696e-05 -8.6289068194911247e-03 0.0000000000000000e+00  6.8931741316344436e-06 -1.1186388776161295e-02 0.0000000000000000e+00  2.0468937181578176e-05 -1.1550221534662211e-02 0.0000000000000000e+00  0.0000000000000000e+00 0.0000000000000000e+00 0.0000000000000000e+00  0.0000000000000000e+00 0.0000000000000000e+00 0.0000000000000000e+00  0.0000000000000000e+00 0.0000000000000000e+00 0.0000000000000000e+00  3.9196814485738449e-06 -8.6317779973924900e-03 0.0000000000000000e+00  2.4683491079687678e-05 -1.1185601000570786e-02 0.0000000000000000e+00  1.3705359291074299e-05 -1.1545766701987002e-02 0.0000000000000000e+00  0.0000000000000000e+00 0.0000000000000000e+00 0.0000000000000000e+00  0.0000000000000000e+00 0.0000000000000000e+00 0.0000000000000000e+00  2.6972504398530690e-05 -1.1902500554888082e-02 0.0000000000000000e+00  2.9298725765299333e-05 -1.1911341593157780e-02 0.0000000000000000e+00  2.5733893698499454e-05 -1.1912167347042662e-02 0.0000000000000000e+00  2.4201540539428262e-05 -1.1912402648740675e-02 0.0000000000000000e+00  2.7531412701512800e-05 -1.1911117460403176e-02 0.0000000000000000e+00  2.2096336170810596e-05 -1.1868924705300349e-02 0.0000000000000000e+00  3.4937164330528576e-05 -1.1875293983490486e-02 0.0000000000000000e+00  3.2312152532291327e-05 -1.1870245641846754e-02 0.0000000000000000e+00  3.5268707755364334e-05 -1.1885896969246810e-02 0.0000000000000000e+00  3.4567455481370600e-05 -1.1880323915333404e-02 0.0000000000000000e+00  3.1436267601258381e-05 -1.1882522661346101e-02 0.0000000000000000e+00  2.4895104019912812e-05 -1.1838545333075094e-02 0.0000000000000000e+00  2.6342514565709794e-05 -1.1888338013751058e-02 0.0000000000000000e+00  2.3657056370898472e-05 -1.1894387128487057e-02 0.0000000000000000e+00  2.3524823657524628e-05 -1.1899165166598127e-02 0.0000000000000000e+00  2.1243790806123920e-05 -1.1902444705661146e-02 0.0000000000000000e+00  2.5187830384581352e-05 -1.1892683349538762e-02 0.0000000000000000e+00  2.0731562150189007e-05 -1.1846393022720897e-02 0.0000000000000000e+00  2.7263757036699987e-05 -1.2010573492200530e-02 0.0000000000000000e+00  2.3989319490755985e-05 -1.2018177295905113e-02 0.0000000000000000e+00  2.5673742084810339e-05 -1.2021881155689092e-02 0.0000000000000000e+00  2.6376624037913981e-05 -1.2023642280253563e-02 0.0000000000000000e+00  2.4291127597711549e-05 -1.2018642460569086e-02 0.0000000000000000e+00  1.8820335226483616e-05 -1.1976993242063054e-02 0.0000000000000000e+00  2.3043269017982406e-05 -1.1938394242968501e-02 0.0000000000000000e+00  3.0166891667408802e-05 -1.1934505575792509e-02 0.0000000000000000e+00  2.3203872518562505e-05 -1.1951747201091866e-02 0.0000000000000000e+00  2.3046615919768532e-05 -1.1943415883809139e-02 0.0000000000000000e+00  2.6929384820257321e-05 -1.1945433380802244e-02 0.0000000000000000e+00  2.5325606925149859e-05 -1.1899019895676530e-02 0.0000000000000000e+00  3.1969670772792093e-05 -1.2025696280480820e-02 0.0000000000000000e+00  3.0171020670305677e-05 -1.2027915012572063e-02 0.0000000000000000e+00  3.1366967394573198e-05 -1.2032794976948754e-02 0.0000000000000000e+00  2.9758086927267436e-05 -1.2031021529462281e-02 0.0000000000000000e+00  3.0495805084034133e-05 -1.2030312952976270e-02 0.0000000000000000e+00  3.2536467679387826e-05 -1.1989822582832193e-02 0.0000000000000000e+00  3.4061458473369964e-05 -1.2004545388961382e-02 0.0000000000000000e+00  3.2141888144385743e-05 -1.2007607724641253e-02 0.0000000000000000e+00  3.2096223910254825e-05 -1.2011546119580550e-02 0.0000000000000000e+00  3.0463851901844704e-05 -1.2010203450942466e-02 0.0000000000000000e+00  3.4576738209735049e-05 -1.2010268634256544e-02 0.0000000000000000e+00  3.8515284995984162e-05 -1.1963296987752415e-02 0.0000000000000000e+00  2.7454871010184024e-05 -1.1990424913190944e-02 0.0000000000000000e+00  2.5372585846300410e-05 -1.1998171299572367e-02 0.0000000000000000e+00  2.6393218382776434e-05 -1.2001868832814747e-02 0.0000000000000000e+00  2.7461427996198988e-05 -1.2003745259519572e-02 0.0000000000000000e+00  2.5016485874213265e-05 -1.1997506591771734e-02 0.0000000000000000e+00  2.0220135541535775e-05 -1.1952714957033043e-02 0.0000000000000000e+00  3.3559956205469637e-05 -1.1983205011057563e-02 0.0000000000000000e+00  3.1051223341426900e-05 -1.1977743864493653e-02 0.0000000000000000e+00  3.3930515274663556e-05 -1.1993431161229891e-02 0.0000000000000000e+00  3.3301327184008502e-05 -1.1987643021984278e-02 0.0000000000000000e+00  3.0020246328395338e-05 -1.1990301966800239e-02 0.0000000000000000e+00  2.3610854688242376e-05 -1.1946250761042748e-02 0.0000000000000000e+00  4.1681575086258565e-05 -1.1970864710641424e-02 0.0000000000000000e+00  3.2463235665626585e-05 -1.1970538493106999e-02 0.0000000000000000e+00  3.8254259549014737e-05 -1.1985348645789274e-02 0.0000000000000000e+00  3.1804423836542410e-05 -1.1976336801473739e-02 0.0000000000000000e+00  3.7399232061372687e-05 -1.1983127347182262e-02 0.0000000000000000e+00  3.9085589611534620e-05 -1.1935083534091910e-02 0.0000000000000000e+00  3.7101465873277038e-05 -1.1945920735024439e-02 0.0000000000000000e+00  3.2079455594892232e-05 -1.1956685075020072e-02 0.0000000000000000e+00  3.6041506293737772e-05 -1.1958986617307450e-02 0.0000000000000000e+00  3.1639526774070598e-05 -1.1954152985803669e-02 0.0000000000000000e+00  3.2311004320883640e-05 -1.1957477667107683e-02 0.0000000000000000e+00  3.2687466579471802e-05 -1.1916381277583318e-02 0.0000000000000000e+00  2.2072976916808714e-05 -1.1222924464918840e-02 0.0000000000000000e+00  3.4234097115202257e-05 -1.1862407301571554e-02 0.0000000000000000e+00  4.2889514132334974e-05 -1.1354722823503886e-02 0.0000000000000000e+00  2.6539732481044871e-05 -8.0737670893761184e-03 0.0000000000000000e+00  0.0000000000000000e+00 0.0000000000000000e+00 0.0000000000000000e+00  2.3981674797666922e-05 -1.1207012047081796e-02 0.0000000000000000e+00  2.9439088755901331e-05 -1.1838563128285800e-02 0.0000000000000000e+00  3.3662490567159117e-05 -1.1334418731398647e-02 0.0000000000000000e+00  2.2025556463707371e-05 -8.0442102284042430e-03 0.0000000000000000e+00  0.0000000000000000e+00 0.0000000000000000e+00 0.0000000000000000e+00  2.4066380558217602e-05 -1.1242982963125077e-02 0.0000000000000000e+00  1.9074923542224738e-05 -1.1866015242749110e-02 0.0000000000000000e+00  9.8715870606050752e-06 -1.1431931386803148e-02 0.0000000000000000e+00  3.2259058875944720e-06 -8.0004728532552111e-03 0.0000000000000000e+00  0.0000000000000000e+00 0.0000000000000000e+00 0.0000000000000000e+00  3.3448641644005319e-05 -1.1187590493441292e-02 0.0000000000000000e+00  4.1494533313393704e-05 -1.1821113380129582e-02 0.0000000000000000e+00  1.3625344293862701e-05 -1.1336723553626582e-02 0.0000000000000000e+00  1.1581086523115541e-05 -8.0514746976472068e-03 0.0000000000000000e+00  0.0000000000000000e+00 0.0000000000000000e+00 0.0000000000000000e+00  2.4396102449911495e-05 -1.1245635673270945e-02 0.0000000000000000e+00  1.9983809660292846e-05 -1.1875357305859598e-02 0.0000000000000000e+00  1.2237457600097447e-05 -1.1374620050480910e-02 0.0000000000000000e+00  1.0345900823209382e-05 -8.0835638831092092e-03 0.0000000000000000e+00  0.0000000000000000e+00 0.0000000000000000e+00 0.0000000000000000e+00  2.7625354179723236e-05 -1.1252379336526048e-02 0.0000000000000000e+00  3.6001526326973192e-05 -1.1886363832501535e-02 0.0000000000000000e+00  4.3423012709770093e-05 -1.1378377246157593e-02 0.0000000000000000e+00  2.8320476232748579e-05 -8.0992556335212854e-03 0.0000000000000000e+00  0.0000000000000000e+00 0.0000000000000000e+00 0.0000000000000000e+00  2.7750030879331573e-05 -1.1288267415619843e-02 0.0000000000000000e+00  3.3316251454792417e-05 -1.1904934768285282e-02 0.0000000000000000e+00  3.8856411938037699e-05 -1.1474037802705716e-02 0.0000000000000000e+00  3.0658334203419107e-05 -8.0431238856121003e-03 0.0000000000000000e+00  0.0000000000000000e+00 0.0000000000000000e+00 0.0000000000000000e+00  1.8829463311759846e-05 -1.1279203710960695e-02 0.0000000000000000e+00  1.4692038692766048e-05 -1.1894284376762739e-02 0.0000000000000000e+00  6.9468881954918703e-06 -1.1458078106443656e-02 0.0000000000000000e+00  1.1845360719206178e-06 -8.0296529802593841e-03 0.0000000000000000e+00  0.0000000000000000e+00 0.0000000000000000e+00 0.0000000000000000e+00  2.5290972344483267e-05 -1.1134210196246533e-02 0.0000000000000000e+00  2.0465180799729214e-05 -1.1766967467208331e-02 0.0000000000000000e+00  1.3165889919627771e-05 -1.1270970990100675e-02 0.0000000000000000e+00  1.0736874696343339e-05 -7.9717082745544426e-03 0.0000000000000000e+00  0.0000000000000000e+00 0.0000000000000000e+00 0.0000000000000000e+00  2.4938097432694095e-05 -1.1131729833353038e-02 0.0000000000000000e+00  2.0302485559616318e-05 -1.1757081672307667e-02 0.0000000000000000e+00  1.1369318642915385e-05 -1.1327455704414360e-02 0.0000000000000000e+00  4.3052486712720517e-06 -7.8895690012330405e-03 0.0000000000000000e+00  0.0000000000000000e+00 0.0000000000000000e+00 0.0000000000000000e+00  3.0556190049252835e-05 -1.1155356829512674e-02 0.0000000000000000e+00  3.7969614825424820e-05 -1.1788370513251274e-02 0.0000000000000000e+00  5.9937255323337578e-06 -1.1302695086622900e-02 0.0000000000000000e+00  9.4070798142071368e-06 -8.0163073702905745e-03 0.0000000000000000e+00  0.0000000000000000e+00 0.0000000000000000e+00 0.0000000000000000e+00  3.2719427853218630e-05 -1.1258964823694055e-02 0.0000000000000000e+00  4.7602026182852188e-05 -1.1855159924195162e-02 0.0000000000000000e+00  3.2771072871160497e-05 -1.1320109352937318e-02 0.0000000000000000e+00  3.4473589864266149e-05 -1.1920491876519715e-02 0.0000000000000000e+00  2.2817907482438071e-05 -8.0510136505527966e-03 0.0000000000000000e+00  0.0000000000000000e+00 0.0000000000000000e+00 0.0000000000000000e+00  2.6357793393024810e-05 -1.1160858405038252e-02 0.0000000000000000e+00  3.6310122033814263e-05 -1.1758699975405840e-02 0.0000000000000000e+00  4.3149966014841697e-05 -1.1249267399931213e-02 0.0000000000000000e+00  3.8209560623910440e-05 -1.1822427742543499e-02 0.0000000000000000e+00  2.6392336820684242e-05 -7.9861737760984763e-03 0.0000000000000000e+00  0.0000000000000000e+00 0.0000000000000000e+00 0.0000000000000000e+00  3.0315487721406210e-05 -1.1212581821563811e-02 0.0000000000000000e+00  3.3821616581425525e-05 -1.1802647545487143e-02 0.0000000000000000e+00  1.9718381640575676e-06 -1.1314530041758909e-02 0.0000000000000000e+00  1.9775289255283276e-05 -1.1870420915342574e-02 0.0000000000000000e+00  8.8296933940682081e-06 -8.0604514808536795e-03 0.0000000000000000e+00  0.0000000000000000e+00 0.0000000000000000e+00 0.0000000000000000e+00  4.1996364422636587e-05 -1.1239010001707028e-02 0.0000000000000000e+00  5.7336183735280233e-05 -1.1815974220972398e-02 0.0000000000000000e+00  3.9576999918531786e-05 -1.1361738973927350e-02 0.0000000000000000e+00  3.9926675469297659e-05 -1.1888686746983772e-02 0.0000000000000000e+00  3.3031298568832949e-05 -7.9345055971532970e-03 0.0000000000000000e+00  0.0000000000000000e+00 0.0000000000000000e+00 0.0000000000000000e+00  3.0906513935893034e-05 -1.1379979004590243e-02 0.0000000000000000e+00  3.9353193953164138e-05 -1.1824603767688714e-02 0.0000000000000000e+00  4.6813390226164770e-05 -1.0965970971735834e-02 0.0000000000000000e+00  3.9773268421528689e-06 -1.1428500661067365e-02 0.0000000000000000e+00  9.6347119110962712e-06 -1.1871551739540806e-02 0.0000000000000000e+00  -2.7109001769032804e-05 -1.1016264935548007e-02 0.0000000000000000e+00  3.1584860773402169e-05 -1.1831534537660645e-02 0.0000000000000000e+00  -6.0574988044463842e-06 -7.6325437638837109e-03 0.0000000000000000e+00  1.5466135802348896e-05 -1.1588429496299927e-02 0.0000000000000000e+00  2.8148758576212820e-05 -1.1917690788835507e-02 0.0000000000000000e+00  9.6310526420278436e-06 -1.1116149180995155e-02 0.0000000000000000e+00  2.9846901438988699e-05 -1.1541520824794260e-02 0.0000000000000000e+00  3.1017161065747516e-05 -1.1907699578691620e-02 0.0000000000000000e+00  3.6232164387576008e-05 -1.1114041330502261e-02 0.0000000000000000e+00  3.3408548777498320e-05 -1.1935332880698266e-02 0.0000000000000000e+00  3.9158616132664738e-05 -1.1921166443805507e-02 0.0000000000000000e+00  3.4834433210200852e-05 -1.1935436579775950e-02 0.0000000000000000e+00  3.4274784082294633e-05 -1.1937274435628932e-02 0.0000000000000000e+00  3.1580875584825495e-05 -1.1925428346613774e-02 0.0000000000000000e+00  3.3301187080607216e-05 -1.1862387173584295e-02 0.0000000000000000e+00  2.9882319846061257e-05 -1.1847661997548772e-02 0.0000000000000000e+00  3.5212944901652949e-05 -1.1872634043274426e-02 0.0000000000000000e+00  3.5892499163296480e-05 -1.1873297173051082e-02 0.0000000000000000e+00  3.6085149513348009e-05 -1.1856297354199529e-02 0.0000000000000000e+00  2.6427105967405436e-05 -1.1921475412959530e-02 0.0000000000000000e+00  3.2050873303647747e-05 -1.1906457012288698e-02 0.0000000000000000e+00  2.4823853156764449e-05 -1.1921484234907586e-02 0.0000000000000000e+00  2.5842124651975402e-05 -1.1924930512842987e-02 0.0000000000000000e+00  2.2379021128892164e-05 -1.1915022342749861e-02 0.0000000000000000e+00  2.8804640199982942e-05 -1.1969470674296498e-02 0.0000000000000000e+00  3.3181641237250818e-05 -1.1957889210428898e-02 0.0000000000000000e+00  2.9147381085269973e-05 -1.1969031481665691e-02 0.0000000000000000e+00  2.9386954740432783e-05 -1.1970630883305768e-02 0.0000000000000000e+00  2.5442249067235235e-05 -1.1953035402603784e-02 0.0000000000000000e+00  3.0299026291298002e-05 -1.1488003371747723e-02 0.0000000000000000e+00  3.9424412741170452e-05 -1.1933518520660557e-02 0.0000000000000000e+00  4.7136852961075289e-05 -1.1075815463952273e-02 0.0000000000000000e+00  2.0226149280342142e-05 -1.1891198788201386e-02 0.0000000000000000e+00  1.3457960363630171e-05 -7.6800054148608863e-03 0.0000000000000000e+00  2.8633994362182209e-05 -1.1515854963062323e-02 0.0000000000000000e+00  3.8291364480965581e-05 -1.1959423160596321e-02 0.0000000000000000e+00  4.6825738702356486e-05 -1.1101123419904234e-02 0.0000000000000000e+00  2.6215230505665251e-05 -1.1616346842972924e-02 0.0000000000000000e+00  3.1695626366043031e-05 -1.1940461364937262e-02 0.0000000000000000e+00  1.9053824772345613e-05 -7.7946772316529467e-03 0.0000000000000000e+00  1.7077518714597262e-05 -1.1918813406854505e-02 0.0000000000000000e+00  1.2525172276099247e-05 -7.7035777598695367e-03 0.0000000000000000e+00  2.1338545943493170e-05 -1.1782449626620825e-02 0.0000000000000000e+00  1.4196225589204548e-05 -7.5837218992017138e-03 0.0000000000000000e+00  -5.4074763721211060e-06 -1.1478069303473977e-02 0.0000000000000000e+00  1.1786412341073944e-05 -1.1868323014283090e-02 0.0000000000000000e+00  -2.5159242843894818e-05 -1.1019983508107144e-02 0.0000000000000000e+00  2.4233666156554137e-05 -1.1966410565857750e-02 0.0000000000000000e+00  2.8285206121312192e-05 -1.1972068759264215e-02 0.0000000000000000e+00  2.5001568799196372e-05 -1.1969825553938480e-02 0.0000000000000000e+00  3.5632805016564538e-05 -1.1877226455779320e-02 0.0000000000000000e+00  3.7000240262808006e-05 -1.1878993129146656e-02 0.0000000000000000e+00  3.4933652096064876e-05 -1.1877357821389187e-02 0.0000000000000000e+00  2.0883195227849931e-05 -1.1924703312429613e-02 0.0000000000000000e+00  1.9611085409069112e-05 -1.1924707010771453e-02 0.0000000000000000e+00  2.2794875141637772e-05 -1.1926292427307769e-02 0.0000000000000000e+00  3.0184065951265022e-05 -1.1934661670449469e-02 0.0000000000000000e+00  3.3395408109922051e-05 -1.1936567040130297e-02 0.0000000000000000e+00  3.1883952129494231e-05 -1.1936614507983083e-02 0.0000000000000000e+00  1.9268600968754164e-06 -1.1534365071782007e-02 0.0000000000000000e+00  1.7266349145459171e-05 -1.1895459582235219e-02 0.0000000000000000e+00  -1.7832858465760719e-05 -1.1086527647427503e-02 0.0000000000000000e+00  2.8374381578150001e-05 -1.1868608225897198e-02 0.0000000000000000e+00  3.1998795769036624e-05 -1.1857835345622007e-02 0.0000000000000000e+00  2.7641262925683268e-05 -1.1913101591341674e-02 0.0000000000000000e+00  3.6000825740944467e-05 -1.1568629970427057e-02 0.0000000000000000e+00  2.9565216908880264e-05 -1.1814309412965180e-02 0.0000000000000000e+00  3.4279995668569953e-05 -1.1869480086701864e-02 0.0000000000000000e+00  2.5580526553698148e-05 -1.1853416561221341e-02 0.0000000000000000e+00  2.3972965474297901e-05 -1.1837629701933194e-02 0.0000000000000000e+00  2.3506002699880119e-05 -1.1896268202302307e-02 0.0