<?xml version="1.0"?>
<VTKFile type="UnstructuredGrid"  version="0.1"  >
<UnstructuredGrid>
<Piece  NumberOfPoints="2690" NumberOfCells="4864">
<Points>
<DataArray  type="Float64"  NumberOfComponents="3"  format="ascii">-5.000012434351109 22.00000165193513 0  -5.603135208416585 21.26250168282625 0  -5.000012156420073 21.50000178178227 0  -5.000011874000942 21.00000166078615 0  -5.603135448252205 21.76250171345643 0  -6.206258499342161 21.52500149905804 0  -9 21.99999999996945 0  -8.396876812477577 21.26250035305662 0  -9 21.49999999997139 0  -9 20.99999999997333 0  -8.396876855084848 21.76250035056846 0  -7.793753669696475 21.52500069666608 0  -9 32.9999999999446 0  -8.396877750241249 32.26250034577613 0  -9 32.49999999994358 0  -9 31.99999999994255 0  -8.396877792860165 32.76250034621781 0  -7.793755545232056 32.52500068829222 0  -5.00001865495096 33.00000179278828 0  -5.519715810489881 32.29635969330661 0  -5.000018374971368 32.50000203227356 0  -5.000018091894137 32.00000172804315 0  -5.519716056190332 32.79635974255291 0  -6.03941348565209 32.5927174266084 0  -5.000030534111182 54.00000172101569 0  -5.603151276879125 54.73750164239752 0  -5.60315103865979 54.23750171924005 0  -6.206271505810244 54.47500146309769 0  -5.000030813383079 54.50000182918566 0  -5.000031092497235 55.00000172306355 0  -9 54.99999999998974 0  -8.46993820199325 54.29611417004631 0  -9 54.49999999998872 0  -9 53.99999999998769 0  -8.469938238430423 54.79611416230765 0  -7.939876447681121 54.59222832702394 0  -9 39.99999999995897 0  -8.39687847280454 40.7375003410675 0  -8.396878430188059 40.23750034121614 0  -7.79375690086941 40.47500067734153 0  -9 40.49999999996 0  -9 40.99999999996102 0  -5.000023179087247 41.00000157628718 0  -5.57645423654517 40.26782010863331 0  -5.000022899653992 40.50000183486751 0  -5.000022619018404 40.00000179358582 0  -5.576454478155116 40.76782007944497 0  -6.152885813182775 40.53563827778851 0  -9 55.99999999999179 0  -8.421711907079452 56.74332552993339 0  -8.421711871008515 56.24332552518783 0  -7.843423779909057 56.4866510501031 0  -9 56.49999999999282 0  -9 56.99999999999384 0  -5.000031663695343 56.00000163695145 0  -5.578320142254222 56.74332686387027 0  -5.578319906093357 56.24332685617056 0  -6.156608109552946 56.48665186800535 0  -5.000031945319347 56.50000188878612 0  -5.000032224509263 57.00000172494215 0  -7.43750949653751 43.00000096077655 0  -6.589634655160346 43.10817190851598 0  -7.19900600051548 43.33733819985931 0  -6.960502527252616 43.67467544106044 0  -6.828138129798016 42.77083465840371 0  -6.218766723421494 42.54166835478489 0  -6.562516882101486 49.00000185015738 0  -7.410391016812796 48.89183078677259 0  -6.801020156801653 48.66266459700477 0  -7.039523454267776 48.32532733751621 0  -7.17188772071811 49.22916803615423 0  -7.781258519909376 49.45833423677281 0  -6.562515847967624 46.00000172649171 0  -7.410390342541157 45.89183070788317 0  -6.801019223950084 45.66266445245255 0  -7.039522622701269 45.32532718759256 0  -7.171886945251876 46.22916797168262 0  -7.781258003002489 46.4583342092567 0  -6.562502413057981 7.000001797837414 0  -7.410381581670736 6.891830763518091 0  -6.801007104445927 6.662664544589306 0  -7.039511818687092 6.325327291130901 0  -7.17187686922475 7.229168016941721 0  -7.781251285652857 7.458334234331588 0  -7.437506625233141 30.00000094506707 0  -6.589630225698489 30.10817187673618 0  -7.199002690930612 30.33733815464397 0  -6.960498779400657 30.67467535808944 0  -6.828134138652134 29.77083466137659 0  -6.218761612426481 29.54166838710436 0  -6.562501396464302 4.000001703495522 0  -7.410380971433123 4.108171519442212 0  -6.801006394305237 4.337338629286299 0  -7.039511369729976 4.674675547882924 0  -7.171875997473792 3.770834596769138 0  -7.781250632723268 3.541667502908027 0  -6.562503444838203 10.00000181599549 0  -7.41038230241442 10.10817159475039 0  -6.801008244084523 10.33733871654756 0  -7.039513020602476 10.67467561635046 0  -7.171877524510307 9.770834696832331 0  -7.781251643606014 9.541667575508988 0  -6.562504478070694 13.00000183361434 0  -7.410382927615974 12.89183079230259 0  -6.801008966602656 12.66266458062378 0  -7.039513477864986 12.32532732771599 0  -7.171878417773882 13.22916804857376 0  -7.781252317997708 13.45833425715974 0  -6.562505511859924 16.00000186589487 0  -7.410383601741016 15.89183080134056 0  -6.801009899141623 15.6626646143938 0  -7.039514309185891 15.32532735742686 0  -7.171879193090813 16.22916805080711 0  -7.781252834869471 16.45833424742069 0  -6.562506545556912 19.00000164857441 0  -7.410384324533958 19.10817146433337 0  -6.801011041518063 19.33733851527602 0  -7.03951551469354 19.67467539383347 0  -7.171879849938255 18.77083458056169 0  -7.781253193807815 18.54166750638494 0  -6.562509301638068 27.00000157593246 0  -7.410386121896726 27.10817141785304 0  -6.801013527915712 27.33733848202899 0  -7.039517731395576 27.6746753903321 0  -7.17188191696915 26.77083449834452 0  -7.781254571828817 26.54166743743423 0  -8.269131521026489 19.09390126854326 0  -8.025192366940693 18.81778438441055 0  -8.390626573572295 18.27083375855494 0  -8.634565732255268 18.54695064264818 0  -9 17.99999999998495 0  -8.269132347411782 27.09390124511691 0  -8.025193469144375 26.81778434155023 0  -8.390627262584728 26.27083371685518 0  -8.634566145447968 26.54695062209445 0  -9 25.99999999995395 0  -8.269131191650414 15.90609976945278 0  -8.025192003737841 16.18221700954078 0  -8.390626440764422 16.72916711931008 0  -8.634565624081672 16.45304988151409 0  -9 16.99999999998883 0  -5.730884356181572 30.0939028532801 0  -5.974822974665526 29.81778561752554 0  -5.609389026295057 29.27083543312031 0  -5.365450402421095 29.54695275369264 0  -5.000016390906312 29.00000164754383 0  -8.269130881710629 12.90609976883797 0  -8.02519159033519 13.18221701260935 0  -8.390626182328019 13.72916712945084 0  -8.634565469103334 13.45304988531666 0  -9 13.99999999999401 0  -8.269130591323972 10.09390132957961 0  -8.02519112697639 9.817784452687333 0  -8.390625798521482 9.270833787397299 0  -8.634565267443568 9.54695066427486 0  -9 8.99999999999857 0  -8.269129981297953 4.093901293905604 0  -8.025190315775264 3.81778440009069 0  -8.390625297314276 3.270833748570793 0  -8.63456496526123 3.546950642795761 0  -9 2.999999999998668 0  -8.269130263072968 6.906099754430428 0  -8.02519076488783 7.182216994055018 0  -8.390625666102512 7.729167117717849 0  -8.634565159607503 7.453049878264091 0  -9 7.999999999999485 0  -8.26913429092801 45.90609972880495 0  -8.025196137442972 46.18221696685169 0  -8.390629024837661 46.72916710806052 0  -8.634567173719168 46.45304987016705 0  -9 46.99999999997333 0  -8.269134600911581 48.90609976169038 0  -8.025196550891174 49.18221700027485 0  -8.390629283257923 49.72916711395121 0  -8.634567328699157 49.45304987810499 0  -9 49.99999999997949 0  -5.730890363971017 43.09390288064243 0  -5.974828534042882 42.81778561644366 0  -5.609395257102054 42.27083537413159 0  -5.365457081782283 42.54695273161757 0  -5.000023741532897 42.00000157913046 0  -5.726138202542441 23.91632565435598 0  -5.974900810589882 24.18406115164592 0  -5.611838743405233 24.72589956984063 0  -6.223663399627692 24.45179665417178 0  -5.363076141372284 24.45816415987508 0  -5.000014137270711 25.00000164459884 0  -8.273878208850942 52.08367691238604 0  -8.025116668976125 51.81594140788424 0  -8.388177531492774 51.27410295945199 0  -7.776355110326323 51.5482059087099 0  -8.636939076712624 51.5418384638504 0  -9 50.99999999998153 0  -5.726144758675096 38.08367849557055 0  -5.974906639364702 37.8159426194057 0  -5.611844751820827 37.27410457604858 0  -6.223668539074104 37.54820674991287 0  -5.363082865013129 37.54184055509369 0  -5.000020913667027 37.00000150108942 0  -5.726143293224876 34.91632563667747 0  -5.974905514558643 35.18406112130739 0  -5.611844012150621 35.725899519431 0  -6.223667716885604 35.45179661078174 0  -5.363081796525766 35.45816413462482 0  -5.000020357400176 36.0000015643113 0  -7.883790273154401 50.50017624950711 0  -7.830072687800048 51.02419108149864 0  -8.441895156245719 50.75008811978364 0  -6.116378836790135 36.50000166225334 0  -6.170023691788114 37.0241041948652 0  -5.558199858112931 36.75000189117644 0  -6.170023273000671 35.97589912599341 0  -5.55819961548958 36.25000187615635 0  -5.9767091761425 25.25996233981456 0  -6.100186280944835 24.85587950135282 0  -5.488361663907471 25.12998231068524 0  -8.027502042236836 25.74581580505673 0  -7.904378300103096 26.14374162114976 0  -8.51375102985563 25.87290790284691 0  -6.942338605256208 34.37590434846646 0  -6.583003133656153 34.91385048900212 0  -6.839962660938667 35.23839876260343 0  -7.199298135594788 34.70045263660292 0  -7.456257642325014 35.02500092148721 0  -7.057685838091635 52.62409812111674 0  -7.417020446971989 52.08615202492945 0  -7.160061558371535 51.76160378300358 0  -6.800726952666638 52.29954988470692 0  -6.543768043638423 51.97500165410206 0  -6.942339841104772 38.62409809600452 0  -6.583004217464659 38.08615243300426 0  -6.83996343124815 37.76160382977091 0  -7.199299051790194 38.29954950800867 0  -7.456258286083962 37.97500091635538 0  -6.942335405692911 23.37590435955978 0  -6.582999375274861 23.91385051255858 0  -6.839959302078633 24.23839879420199 0  -7.199295335562763 23.70045265332449 0  -7.456255241835628 24.02500094205234 0  -7.883931331807806 17.50000080955578 0  -7.832592259024725 18.0208341608361 0  -8.441965685626586 17.75000039949726 0  -7.832592087118941 16.97916752952477 0  -8.441965646182902 17.25000040765256 0  -7.883929912525063 8.500000829565158 0  -7.832590774266015 9.020834202606416 0  -8.441964975957131 8.750000415057054 0  -7.931241787724174 2.415596417269833 0  -7.85624620205098 2.978631957554509 0  -8.465620912691197 2.707798211453316 0  -7.832590602802044 7.979167532347816 0  -8.441964936622789 8.250000414193453 0  -7.832524400325452 49.97925524423388 0  -8.441895116859175 50.25008812757768 0  -6.026612573786934 41.5931007530965 0  -6.122689654926051 42.067384
[...]
<PointData  Vectors="f_27"> 
<DataArray  type="Float64"  Name="f_27"  NumberOfComponents="3" format="ascii">0.0000000000000000e+00 0.0000000000000000e+00 0.0000000000000000e+00  -2.6884532919267557e-09 -2.6115559080220507e-04 0.0000000000000000e+00  0.0000000000000000e+00 0.0000000000000000e+00 0.0000000000000000e+00  0.0000000000000000e+00 0.0000000000000000e+00 0.0000000000000000e+00  -3.0585874471724194e-07 -3.7375351226076831e-04 0.0000000000000000e+00  -1.0704435823162135e-07 -3.8564316924442996e-04 0.0000000000000000e+00  0.0000000000000000e+00 0.0000000000000000e+00 0.0000000000000000e+00  8.3038300034075747e-08 -2.6639803328964160e-04 0.0000000000000000e+00  0.0000000000000000e+00 0.0000000000000000e+00 0.0000000000000000e+00  0.0000000000000000e+00 0.0000000000000000e+00 0.0000000000000000e+00  4.5512475881411054e-07 -3.7313071130827622e-04 0.0000000000000000e+00  2.5193850167285934e-07 -3.8754339908490912e-04 0.0000000000000000e+00  0.0000000000000000e+00 0.0000000000000000e+00 0.0000000000000000e+00  5.3477492089886112e-08 -2.6093564124030755e-04 0.0000000000000000e+00  0.0000000000000000e+00 0.0000000000000000e+00 0.0000000000000000e+00  0.0000000000000000e+00 0.0000000000000000e+00 0.0000000000000000e+00  4.1677634233074839e-07 -3.7286831681202127e-04 0.0000000000000000e+00  2.0905437109357857e-07 -3.8737445252073574e-04 0.0000000000000000e+00  0.0000000000000000e+00 0.0000000000000000e+00 0.0000000000000000e+00  -4.4461803936973319e-08 -2.7421539593197358e-04 0.0000000000000000e+00  0.0000000000000000e+00 0.0000000000000000e+00 0.0000000000000000e+00  0.0000000000000000e+00 0.0000000000000000e+00 0.0000000000000000e+00  -2.2771715313813691e-07 -3.7418628584390566e-04 0.0000000000000000e+00  -9.7409370367160713e-08 -3.8820811679922781e-04 0.0000000000000000e+00  0.0000000000000000e+00 0.0000000000000000e+00 0.0000000000000000e+00  1.1752534156997033e-07 -2.7460055641988213e-04 0.0000000000000000e+00  5.4810141497889505e-07 -3.7420229534959013e-04 0.0000000000000000e+00  2.6138406680184110e-07 -3.8763139866375082e-04 0.0000000000000000e+00  0.0000000000000000e+00 0.0000000000000000e+00 0.0000000000000000e+00  0.0000000000000000e+00 0.0000000000000000e+00 0.0000000000000000e+00  0.0000000000000000e+00 0.0000000000000000e+00 0.0000000000000000e+00  -3.1591258954206661e-08 -2.7289495203691207e-04 0.0000000000000000e+00  0.0000000000000000e+00 0.0000000000000000e+00 0.0000000000000000e+00  0.0000000000000000e+00 0.0000000000000000e+00 0.0000000000000000e+00  3.2696297653720510e-08 -3.7728889410128079e-04 0.0000000000000000e+00  2.6006171839297346e-08 -3.8831558150483004e-04 0.0000000000000000e+00  0.0000000000000000e+00 0.0000000000000000e+00 0.0000000000000000e+00  -6.1278760978869687e-08 -2.6022185250510632e-04 0.0000000000000000e+00  -4.1423097655001594e-07 -3.7286115080062556e-04 0.0000000000000000e+00  -2.1815132023866453e-07 -3.8714646999832384e-04 0.0000000000000000e+00  0.0000000000000000e+00 0.0000000000000000e+00 0.0000000000000000e+00  0.0000000000000000e+00 0.0000000000000000e+00 0.0000000000000000e+00  0.0000000000000000e+00 0.0000000000000000e+00 0.0000000000000000e+00  1.7786605762332441e-07 -2.6535741268450763e-04 0.0000000000000000e+00  0.0000000000000000e+00 0.0000000000000000e+00 0.0000000000000000e+00  0.0000000000000000e+00 0.0000000000000000e+00 0.0000000000000000e+00  -9.4370583937464436e-08 -3.7743667367452549e-04 0.0000000000000000e+00  2.1557335537927037e-08 -3.8808344255166584e-04 0.0000000000000000e+00  0.0000000000000000e+00 0.0000000000000000e+00 0.0000000000000000e+00  1.3656672719363530e-07 -2.8533064387598983e-04 0.0000000000000000e+00  -2.0481442481192147e-07 -3.7500182910122422e-04 0.0000000000000000e+00  1.6672192037717577e-08 -3.8804021367782070e-04 0.0000000000000000e+00  0.0000000000000000e+00 0.0000000000000000e+00 0.0000000000000000e+00  0.0000000000000000e+00 0.0000000000000000e+00 0.0000000000000000e+00  0.0000000000000000e+00 0.0000000000000000e+00 0.0000000000000000e+00  -1.5414061788436554e-07 -2.8531749144471852e-04 0.0000000000000000e+00  2.0204509188290042e-07 -3.7505853836945703e-04 0.0000000000000000e+00  -3.4093834854987884e-08 -3.8793573441664301e-04 0.0000000000000000e+00  0.0000000000000000e+00 0.0000000000000000e+00 0.0000000000000000e+00  0.0000000000000000e+00 0.0000000000000000e+00 0.0000000000000000e+00  -3.7396512307994948e-09 -3.9986805826607236e-04 0.0000000000000000e+00  -6.5637207895235214e-08 -4.0013993161201159e-04 0.0000000000000000e+00  -5.3296198132930002e-08 -4.0022575023340875e-04 0.0000000000000000e+00  -6.8143284296993297e-08 -4.0022604076029710e-04 0.0000000000000000e+00  -4.6635631576333989e-08 -4.0013491781758383e-04 0.0000000000000000e+00  -1.9790387761071242e-07 -3.9844044962505335e-04 0.0000000000000000e+00  3.4117189104928873e-09 -3.9976781225145943e-04 0.0000000000000000e+00  -4.8994332555752061e-09 -3.9954170327786081e-04 0.0000000000000000e+00  5.1594537072973443e-09 -4.0008026426824328e-04 0.0000000000000000e+00  5.8329188466738751e-09 -3.9977329369840937e-04 0.0000000000000000e+00  -2.5557428857834407e-08 -4.0000582199276497e-04 0.0000000000000000e+00  -1.1197911438934858e-07 -3.9835799657727226e-04 0.0000000000000000e+00  -1.5585826353108150e-07 -3.9974074084417181e-04 0.0000000000000000e+00  -1.1703006409627884e-07 -4.0004852512404143e-04 0.0000000000000000e+00  -1.5104545573264406e-07 -4.0014732481903300e-04 0.0000000000000000e+00  -1.2142144978811715e-07 -4.0019574976071651e-04 0.0000000000000000e+00  -1.4037166864110158e-07 -3.9999562065082684e-04 0.0000000000000000e+00  -1.8671917271016903e-07 -3.9840588032498186e-04 0.0000000000000000e+00  -8.6070482866015092e-08 -3.9970475796183161e-04 0.0000000000000000e+00  -1.0376528272048415e-07 -3.9999827845504915e-04 0.0000000000000000e+00  -8.9721404874424943e-08 -4.0008643298515122e-04 0.0000000000000000e+00  -6.8892797490066051e-08 -4.0009707730121201e-04 0.0000000000000000e+00  -1.1457361430132933e-07 -4.0000136284021554e-04 0.0000000000000000e+00  -1.8543106947517177e-07 -3.9848111291190125e-04 0.0000000000000000e+00  -8.8349098882892409e-08 -3.9966132387651875e-04 0.0000000000000000e+00  -2.7714794097911881e-08 -3.9963874908092837e-04 0.0000000000000000e+00  -1.0462856781794384e-07 -4.0017998270339931e-04 0.0000000000000000e+00  -7.9789282083408345e-08 -3.9979541091242452e-04 0.0000000000000000e+00  -4.5818416918270503e-08 -4.0002666124851492e-04 0.0000000000000000e+00  -9.5540070946771179e-08 -3.9831401714075614e-04 0.0000000000000000e+00  -5.8837129993662693e-08 -3.9968092655864770e-04 0.0000000000000000e+00  3.8760580636117486e-10 -4.0003867392200519e-04 0.0000000000000000e+00  -2.5129767561368564e-08 -4.0010547898282957e-04 0.0000000000000000e+00  -2.7262496911311788e-08 -4.0011318403295929e-04 0.0000000000000000e+00  -1.4227773156296816e-08 -4.0003363426691741e-04 0.0000000000000000e+00  8.1864651733971496e-08 -3.9861372567211926e-04 0.0000000000000000e+00  7.2460108423489008e-08 -3.9969893617704223e-04 0.0000000000000000e+00  9.2854919993892834e-08 -3.9997306046912388e-04 0.0000000000000000e+00  7.0677184415363686e-08 -4.0007534117493429e-04 0.0000000000000000e+00  4.5747128479880475e-08 -4.0008421840483826e-04 0.0000000000000000e+00  1.1170437289635919e-07 -3.9997560498523916e-04 0.0000000000000000e+00  2.1945970511502673e-07 -3.9820544777449289e-04 0.0000000000000000e+00  -5.9112645563359883e-08 -3.9967822389994821e-04 0.0000000000000000e+00  -6.1056547536254931e-08 -3.9996407066641521e-04 0.0000000000000000e+00  -5.2862199616363060e-08 -4.0005954003393649e-04 0.0000000000000000e+00  -2.6898192707316794e-08 -4.0007362196313516e-04 0.0000000000000000e+00  -8.4921188874994223e-08 -3.9995213297469746e-04 0.0000000000000000e+00  -1.5848204295716613e-07 -3.9835848502720435e-04 0.0000000000000000e+00  4.7647513267168941e-09 -3.9976545150970463e-04 0.0000000000000000e+00  -1.3735313090983080e-11 -3.9953323190754399e-04 0.0000000000000000e+00  1.1252692769307339e-08 -4.0007698070421632e-04 0.0000000000000000e+00  1.6766830468499038e-08 -3.9977005847879562e-04 0.0000000000000000e+00  -2.6231788476837004e-08 -3.9999615014371122e-04 0.0000000000000000e+00  -1.1274834281709030e-07 -3.9834210448678640e-04 0.0000000000000000e+00  1.7748329825161383e-07 -3.9973582800032664e-04 0.0000000000000000e+00  9.5551596776034749e-08 -3.9960184702321890e-04 0.0000000000000000e+00  1.5881243677633574e-07 -4.0018886767327486e-04 0.0000000000000000e+00  1.1995076897279804e-07 -3.9974169860567489e-04 0.0000000000000000e+00  1.4514882847727642e-07 -4.0007277578408038e-04 0.0000000000000000e+00  2.2399499945795512e-07 -3.9813094957343134e-04 0.0000000000000000e+00  3.9591603572388586e-08 -3.9958376110373636e-04 0.0000000000000000e+00  7.6346525927807292e-08 -4.0003955400236854e-04 0.0000000000000000e+00  8.3275577875801215e-08 -4.0010755956478792e-04 0.0000000000000000e+00  9.6049305820785907e-08 -3.9994149719610781e-04 0.0000000000000000e+00  3.8632863245576793e-08 -4.0003159955666567e-04 0.0000000000000000e+00  1.2375749802252345e-07 -3.9848475456808461e-04 0.0000000000000000e+00  -2.3362415458986730e-08 -3.7047345156537782e-04 0.0000000000000000e+00  1.7730622720326103e-07 -3.9500466988881468e-04 0.0000000000000000e+00  3.5966227089606912e-07 -3.7809794735538639e-04 0.0000000000000000e+00  1.9452917448680498e-07 -2.5488631990974866e-04 0.0000000000000000e+00  0.0000000000000000e+00 0.0000000000000000e+00 0.0000000000000000e+00  3.8417003322374033e-08 -3.7104121991229374e-04 0.0000000000000000e+00  1.0384210789371315e-07 -3.9514855866327092e-04 0.0000000000000000e+00  2.3160766385214314e-07 -3.7875680628007391e-04 0.0000000000000000e+00  1.2719186339733431e-07 -2.5467642049750814e-04 0.0000000000000000e+00  0.0000000000000000e+00 0.0000000000000000e+00 0.0000000000000000e+00  -3.9999944546458591e-08 -3.7099947039616647e-04 0.0000000000000000e+00  -1.6498207193298930e-07 -3.9482298231879095e-04 0.0000000000000000e+00  -2.9724489939368547e-07 -3.8065146498905206e-04 0.0000000000000000e+00  -2.7012345737618716e-07 -2.5170187677657540e-04 0.0000000000000000e+00  0.0000000000000000e+00 0.0000000000000000e+00 0.0000000000000000e+00  8.5009240048964620e-08 -3.7066413438971050e-04 0.0000000000000000e+00  -5.1458262898805183e-08 -3.9506687120560572e-04 0.0000000000000000e+00  -2.0582891547450301e-07 -3.7855433741302023e-04 0.0000000000000000e+00  -9.6851314775815025e-08 -2.5462084591610685e-04 0.0000000000000000e+00  0.0000000000000000e+00 0.0000000000000000e+00 0.0000000000000000e+00  -2.1136940109831606e-08 -3.7084459838824439e-04 0.0000000000000000e+00  -1.2276974818925079e-07 -3.9500090101593949e-04 0.0000000000000000e+00  -2.7335700684925011e-07 -3.7881776592497881e-04 0.0000000000000000e+00  -1.4271860242422727e-07 -2.5467366511535398e-04 0.0000000000000000e+00  0.0000000000000000e+00 0.0000000000000000e+00 0.0000000000000000e+00  7.0961161048799617e-08 -3.7073272315005565e-04 0.0000000000000000e+00  2.0487231395812593e-07 -3.9497671895625570e-04 0.0000000000000000e+00  3.6287532805340032e-07 -3.7810786372225889e-04 0.0000000000000000e+00  2.1452516669017826e-07 -2.5488672093078595e-04 0.0000000000000000e+00  0.0000000000000000e+00 0.0000000000000000e+00 0.0000000000000000e+00  6.9454034052125599e-08 -3.7146819255472164e-04 0.0000000000000000e+00  1.5201485187267445e-07 -3.9498239178151873e-04 0.0000000000000000e+00  2.4055094737718564e-07 -3.8094432636025081e-04 0.0000000000000000e+00  2.4996633402379654e-07 -2.5187741107320045e-04 0.0000000000000000e+00  0.0000000000000000e+00 0.0000000000000000e+00 0.0000000000000000e+00  -1.3029949439859143e-07 -3.7138980486660210e-04 0.0000000000000000e+00  -2.2946666133976759e-07 -3.9488068855413527e-04 0.0000000000000000e+00  -3.3815874289222337e-07 -3.8070318355034265e-04 0.0000000000000000e+00  -2.9804194393214975e-07 -2.5174669388095336e-04 0.0000000000000000e+00  0.0000000000000000e+00 0.0000000000000000e+00 0.0000000000000000e+00  1.6802613707741950e-09 -3.7090627715425956e-04 0.0000000000000000e+00  -1.3047316970972929e-07 -3.9505069610314998e-04 0.0000000000000000e+00  -2.7930133107811680e-07 -3.7885270906324507e-04 0.0000000000000000e+00  -1.3909412467708954e-07 -2.5469473856382167e-04 0.0000000000000000e+00  0.0000000000000000e+00 0.0000000000000000e+00 0.0000000000000000e+00  -4.1445058802620174e-08 -3.7101462207980430e-04 0.0000000000000000e+00  -1.6585323623058628e-07 -3.9483946563819442e-04 0.0000000000000000e+00  -2.9493321592233933e-07 -3.8067291323510730e-04 0.0000000000000000e+00  -2.7022571691697603e-07 -2.5171331578588662e-04 0.0000000000000000e+00  0.0000000000000000e+00 0.0000000000000000e+00 0.0000000000000000e+00  -2.3532892768291009e-08 -3.7092084673501609e-04 0.0000000000000000e+00  -1.7602774175372785e-07 -3.9512248531361577e-04 0.0000000000000000e+00  -3.7759211446028302e-07 -3.7824645258309638e-04 0.0000000000000000e+00  -1.7917199163439102e-07 -2.5482658210839305e-04 0.0000000000000000e+00  0.0000000000000000e+00 0.0000000000000000e+00 0.0000000000000000e+00  -8.1599461132020054e-09 -3.7273470709297635e-04 0.0000000000000000e+00  8.6795801142551871e-08 -3.9536922117104113e-04 0.0000000000000000e+00  2.1605846736942118e-07 -3.7864589683962225e-04 0.0000000000000000e+00  8.2245686160608425e-08 -3.9827482051104653e-04 0.0000000000000000e+00  9.9553302983142170e-08 -2.5553058808752379e-04 0.0000000000000000e+00  0.0000000000000000e+00 0.0000000000000000e+00 0.0000000000000000e+00  5.3240321935848672e-08 -3.7245684415189168e-04 0.0000000000000000e+00  2.1600054547049575e-07 -3.9529226811133901e-04 0.0000000000000000e+00  3.7501357118045884e-07 -3.7810402973226286e-04 0.0000000000000000e+00  2.2421062691837418e-07 -3.9798225674399386e-04 0.0000000000000000e+00  1.9472362385264380e-07 -2.5577354345402266e-04 0.0000000000000000e+00  0.0000000000000000e+00 0.0000000000000000e+00 0.0000000000000000e+00  -8.7255877280167875e-08 -3.7253950129753551e-04 0.0000000000000000e+00  -2.2522890936422358e-07 -3.9531981073225053e-04 0.0000000000000000e+00  -3.6730496777695276e-07 -3.7816542488187818e-04 0.0000000000000000e+00  -2.1907539558788732e-07 -3.9811121482283919e-04 0.0000000000000000e+00  -2.0418432306836570e-07 -2.5581004624955175e-04 0.0000000000000000e+00  0.0000000000000000e+00 0.0000000000000000e+00 0.0000000000000000e+00  1.6332764349958725e-07 -3.7343420731856592e-04 0.0000000000000000e+00  2.6090279682902290e-07 -3.9525370748198064e-04 0.0000000000000000e+00  3.4820944864310789e-07 -3.8077340625692425e-04 0.0000000000000000e+00  1.9333375693424268e-07 -3.9839122163628983e-04 0.0000000000000000e+00  2.9297997252246498e-07 -2.5269301769618741e-04 0.0000000000000000e+00  0.0000000000000000e+00 0.0000000000000000e+00 0.0000000000000000e+00  1.0835150498594309e-07 -3.8110823972232035e-04 0.0000000000000000e+00  2.3915531444591120e-07 -3.9775971286863871e-04 0.0000000000000000e+00  4.0243502045866769e-07 -3.6533644706820354e-04 0.0000000000000000e+00  -7.0560073749618273e-08 -3.8116236350515463e-04 0.0000000000000000e+00  -2.1523835735821207e-07 -3.9780608918435213e-04 0.0000000000000000e+00  -3.8507844154162671e-07 -3.6541268344135984e-04 0.0000000000000000e+00  1.9656558869635336e-07 -3.9599260691540418e-04 0.0000000000000000e+00  5.0527038252736478e-08 -2.4614737466900920e-04 0.0000000000000000e+00  1.4702157847157422e-07 -3.8579679734345953e-04 0.0000000000000000e+00  1.0389823591912028e-07 -3.9809437271561102e-04 0.0000000000000000e+00  2.3258539652053742e-07 -3.6678806559617384e-04 0.0000000000000000e+00  1.7068000993099577e-07 -3.8396192006063249e-04 0.0000000000000000e+00  1.2073410783447531e-07 -3.9785028912810345e-04 0.0000000000000000e+00  2.4187097501838784e-07 -3.6706517619294849e-04 0.0000000000000000e+00  1.0190795387645148e-07 -4.0006410692886490e-04 0.0000000000000000e+00  9.5616402772552483e-08 -3.9962923575168193e-04 0.0000000000000000e+00  1.1765280525450845e-07 -4.0010492560567834e-04 0.0000000000000000e+00  1.0827837069088609e-07 -4.0018662211188649e-04 0.0000000000000000e+00  1.1427838113702857e-07 -3.9977559845813239e-04 0.0000000000000000e+00  8.8931207988493909e-08 -3.9967707247759443e-04 0.0000000000000000e+00  5.2622856824916766e-08 -3.9911048347931208e-04 0.0000000000000000e+00  1.2403317637513441e-07 -4.0003893409093125e-04 0.0000000000000000e+00  1.0441456301715467e-07 -4.0015128773693417e-04 0.0000000000000000e+00  1.3332931551737434e-07 -3.9952255267364516e-04 0.0000000000000000e+00  -7.3100556236923339e-08 -4.0005810062790614e-04 0.0000000000000000e+00  -7.2583046939663217e-08 -3.9960026702399797e-04 0.0000000000000000e+00  -1.0469852714159717e-07 -4.0009014857707309e-04 0.0000000000000000e+00  -8.9900875691408936e-08 -4.0019329585204823e-04 0.0000000000000000e+00  -1.0097035548549102e-07 -3.9978332213658229e-04 0.0000000000000000e+00  1.5572763771667668e-08 -4.0001346915093149e-04 0.0000000000000000e+00  -1.8144812950263395e-08 -3.9963398153852270e-04 0.0000000000000000e+00  -7.3058377518147521e-09 -4.0003404028201027e-04 0.0000000000000000e+00  5.5502500543082606e-09 -4.0014011740232603e-04 0.0000000000000000e+00  -2.2679616067478561e-08 -3.9950456690509520e-04 0.0000000000000000e+00  9.8825287797388672e-08 -3.8104060840828130e-04 0.0000000000000000e+00  2.3100330375130362e-07 -3.9774261666297370e-04 0.0000000000000000e+00  3.9118762168183817e-07 -3.6528219216577307e-04 0.0000000000000000e+00  -1.4287831749490052e-07 -3.9589850208544261e-04 0.0000000000000000e+00  -3.4197950405497975e-08 -2.4577003055603483e-04 0.0000000000000000e+00  7.2539768617639913e-08 -3.8109559083187835e-04 0.0000000000000000e+00  2.1338739840743840e-07 -3.9773764811195950e-04 0.0000000000000000e+00  3.8019175269419381e-07 -3.6528614986539769e-04 0.0000000000000000e+00  -1.2018293141728717e-08 -3.8433865432861290e-04 0.0000000000000000e+00  9.3244002369546160e-08 -3.9630043023516855e-04 0.0000000000000000e+00  -9.1234417450354322e-10 -2.4778186747226538e-04 0.0000000000000000e+00  -1.8891176994062524e-07 -3.9592402214530401e-04 0.0000000000000000e+00  -4.7486533634424197e-08 -2.4577985987107425e-04 0.0000000000000000e+00  -1.3898205018404482e-07 -3.9592055345884073e-04 0.0000000000000000e+00  -2.8456731895981176e-08 -2.4579852158399874e-04 0.0000000000000000e+00  -3.2939974610840164e-07 -3.8299797837693176e-04 0.0000000000000000e+00  -2.8291380547096506e-07 -3.9801729543081856e-04 0.0000000000000000e+00  -5.3619074574880501e-07 -3.6559071134312660e-04 0.0000000000000000e+00  -4.5091973390785928e-08 -3.9994074987975567e-04 0.0000000000000000e+00  1.8725697504834602e-08 -4.0012623084957860e-04 0.0000000000000000e+00  -5.6548428400988609e-08 -4.0013943643714092e-04 0.0000000000000000e+00  1.3895670477007680e-07 -4.0011438626246036e-04 0.0000000000000000e+00  1.7087846633097264e-07 -4.0009865101706094e-04 0.0000000000000000e+00  1.2612502164807621e-07 -4.0021135860017899e-04 0.0000000000000000e+00  -9.7840549910957109e-08 -4.0011438381013778e-04 0.0000000000000000e+00  -1.4230467446149821e-07 -4.0012723546277727e-04 0.0000000000000000e+00  -9.8175111372110530e-08 -4.0020335644383697e-04 0.0000000000000000e+00  1.0708699188665812e-07 -4.0012551012480295e-04 0.0000000000000000e+00  1.5094664156456152e-07 -4.0015302712104330e-04 0.0000000000000000e+00  1.0926345365102220e-07 -4.0020010773339281e-04 0.0000000000000000e+00  -1.7439822113111385e-07 -3.8411122055975305e-04 0.0000000000000000e+00  -1.1058488719872922e-07 -3.9780329792701933e-04 0.0000000000000000e+00  -2.3520376450797049e-07 -3.6656615496307419e-04 0.0000000000000000e+00  -1.3234092892885697e-08 -3.9848447601516479e-04 0.0000000000000000e+00  -8.5642349881652999e-08 -3.9800625004562099e-04 0.0000000000000000e+00  -5.1409696518418142e-08 -4.0009835379572936e-04 0.0000000000000000e+00  1.3328492586527593e-07 -3.8856500905751982e-04 0.0000000000000000e+00  -1.8052207937652547e-08 -3.9738064754967422e-04 0.0000000000000000e+00  2.5831969754355482e-08 -3.9935053016974603e-04 0.0000000000000000e+00  -2.0386919760931952e-08 -3.9841585594896584e-04 0.0000000000000000e+00  -8.733