<?xml version="1.0"?>
<VTKFile type="UnstructuredGrid"  version="0.1"  >
<UnstructuredGrid>
<Piece  NumberOfPoints="2690" NumberOfCells="4864">
<Points>
<DataArray  type="Float64"  NumberOfComponents="3"  format="ascii">-5.000041415364602 22.00000650596065 0  -5.603159016302971 21.26250661477984 0  -5.000040512949204 21.50000702886457 0  -5.000039574469193 21.00000654678635 0  -5.603159814141597 21.76250673324017 0  -6.20627832029858 21.52500588100841 0  -9 21.99999999996945 0  -8.396881039226034 21.262501381756 0  -9 21.49999999997139 0  -9 20.99999999997333 0  -8.396881181100472 21.76250137259044 0  -7.793762227449538 21.52500272780092 0  -9 32.9999999999446 0  -8.39688416381434 32.26250135535906 0  -9 32.49999999994358 0  -9 31.99999999994255 0  -8.39688430578696 32.76250135709978 0  -7.79376847669833 32.52500269819505 0  -5.000062148743578 33.00000705517499 0  -5.519752859297906 32.2963649165018 0  -5.00006122922332 32.50000799733706 0  -5.00006028416569 32.00000681117564 0  -5.519753676744888 32.79636510565304 0  -6.03944529040698 32.59272211951776 0  -5.000101759684112 54.00000676971171 0  -5.603212551181822 54.73750645640647 0  -5.603211761431955 54.23750675187414 0  -6.206321655685334 54.47500573847947 0  -5.000102673179129 54.50000721310567 0  -5.000103584306633 55.00000679096069 0  -9 54.99999999998974 0  -8.469947683115961 54.29611504041313 0  -9 54.49999999998872 0  -9 53.99999999998769 0  -8.46994780440423 54.7961150110435 0  -7.939895511671426 54.59223003122487 0  -9 39.99999999995897 0  -8.396886571574706 40.73750133634226 0  -8.396886429626942 40.23750133710747 0  -7.793772994163541 40.47500265449084 0  -9 40.49999999996 0  -9 40.99999999996102 0  -5.000077226847198 41.00000622050478 0  -5.57649968330466 40.26782514942419 0  -5.000076311706137 40.50000723772458 0  -5.000075387992836 40.00000705841639 0  -5.576500486430307 40.76782503704931 0  -6.152923856605612 40.53564266941501 0  -9 55.99999999999179 0  -8.421722686866486 56.74332645395923 0  -8.421722566708194 56.24332643588442 0  -7.843445259587843 56.48665287070435 0  -9 56.49999999999282 0  -9 56.99999999999384 0  -5.000105515621451 56.00000645148082 0  -5.578384096906437 56.7433317029612 0  -5.578383311828795 56.24333167352123 0  -6.156660990700038 56.48665608566138 0  -5.000106449143514 56.5000074412882 0  -5.000107359990958 57.00000680290446 0  -7.437531642716684 43.00000375349469 0  -6.589668905086385 43.10817627051932 0  -7.199031727663043 43.33734146951126 0  -6.960531888520292 43.67467919313707 0  -6.828168748618593 42.77083851222704 0  -6.218805721634992 42.54167326726675 0  -6.562556254135572 49.00000717877096 0  -7.410416636145627 48.89183422738064 0  -6.801055431229253 48.66266940917715 0  -7.039554684302935 48.32533161632373 0  -7.171917387500563 49.22917198221579 0  -7.781278389632773 49.45833684085274 0  -6.56255280500474 46.00000671380423 0  -7.410414387861432 45.89183393042595 0  -6.801052320338449 45.6626688648311 0  -7.039551911701985 45.32533105120242 0  -7.171914801637252 46.22917173990177 0  -7.781276666196716 46.45833673762721 0  -6.5625080393435 7.000006985485979 0  -7.410385195997049 6.891834141842847 0  -6.801011937652871 6.662669214122559 0  -7.039515912109572 6.32533144279904 0  -7.171881227523651 7.229171912900074 0  -7.781254283286184 7.458336833912564 0  -7.437522075068488 30.00000369791859 0  -6.589654145160234 30.10817615597234 0  -7.199020699618587 30.33734130324169 0  -6.96051940017648 30.6746788851781 0  -6.828155449371369 29.77083852832995 0  -6.218788690772163 29.54167339498028 0  -6.562504651687167 4.000006629246958 0  -7.410383162550996 4.108174734048614 0  -6.801009571249962 4.337343122272543 0  -7.03951441605065 4.674679589006872 0  -7.171878322645592 3.7708382519104 0  -7.781252107681643 3.541669923004502 0  -6.562511476823357 10.0000070540919 0  -7.410387597249687 10.10817501823499 0  -6.801015734513112 10.33734345179385 0  -7.039519916490709 10.67467984748075 0  -7.171883410652442 9.770838629492372 0  -7.781255475840551 9.541670196846525 0  -6.562514919395833 13.00000711896682 0  -7.410389680390056 12.89183424932507 0  -6.801018141872411 12.66266934903843 0  -7.039521440073242 12.32533158013805 0  -7.171886386959391 13.22917203059233 0  -7.781257722910416 13.45833691870886 0  -6.56251836567204 16.00000723898211 0  -7.41039192740354 15.8918342830109 0  -6.801021250267727 15.66266947551574 0  -7.039524210814225 15.32533169208564 0  -7.171888971411899 16.22917203834186 0  -7.781259445795593 16.45833688173692 0  -6.562521810293078 19.00000642107299 0  -7.410394336260915 19.10817452563913 0  -6.801025057582557 19.33734269292821 0  -7.039528228752401 19.67467900915987 0  -7.171891160338506 18.77083818918151 0  -7.781260641979962 18.54166993481723 0  -6.562530992446396 27.00000614999187 0  -7.410400324201619 27.10817435307297 0  -6.801033341183564 27.33734256970571 0  -7.03953561372418 27.67467899829309 0  -7.171898046657799 26.77083788271077 0  -7.781265232842577 26.54166967763597 0  -8.269136120732576 19.09390267368881 0  -8.025198413099904 18.81778629275811 0  -8.390630243236302 18.27083498762342 0  -8.634567966188335 18.54695136842974 0  -9 17.99999999998495 0  -8.269138873838093 27.09390258684081 0  -8.025202085089626 26.81778613322179 0  -8.390632538677005 26.27083483197722 0  -8.634569342738413 26.54695129184486 0  -9 25.99999999995395 0  -8.269135023005814 15.90610136232055 0  -8.025197202662795 16.1822191261773 0  -8.390629800640468 16.72916842429211 0  -8.634567605683014 16.45305066908233 0  -9 16.99999999998883 0  -5.730916781382151 30.09390887545864 0  -5.974852703389137 29.81779112508064 0  -5.609421730296287 29.27084154553646 0  -5.365485786689988 29.54695962081455 0  -5.000054593459905 29.00000648987118 0  -8.269133989943777 12.90610136007996 0  -8.025195824705223 13.18221913790988 0  -8.390628939214265 13.72916846259252 0  -8.634567089110504 13.45305068345754 0  -9 13.99999999999401 0  -8.269133022379489 10.09390290424029 0  -8.025194280798297 9.817786551018697 0  -8.390627660357517 9.270835097109204 0  -8.634566417176183 9.546951450321973 0  -9 8.99999999999857 0  -8.269130989851035 4.093902769672111 0  -8.025191577968224 3.817786352618939 0  -8.39062599040895 3.270834950714622 0  -8.634565410346095 3.546951369322206 0  -9 2.999999999998668 0  -8.269131928756806 6.906101306277351 0  -8.025193074451767 7.182219068800715 0  -8.390627219189069 7.7291684190742 0  -8.634566057906422 7.453050657234557 0  -9 7.999999999999485 0  -8.269145349940855 45.90610120891809 0  -8.02521097632374 46.18221896504238 0  -8.390638410917802 46.72916838174252 0  -8.634572769155643 46.45305062624666 0  -9 46.99999999997333 0  -8.269146383425449 48.90610133269657 0  -8.025212354800418 49.18221909070912 0  -8.390639272431661 49.7291684036531 0  -8.634573285840949 49.45305065601249 0  -9 49.99999999997949 0  -5.730936801626785 43.09390897365884 0  -5.97487122880249 42.81779111552783 0  -5.609442492385419 42.27084131640161 0  -5.365508044526952 42.54695953295689 0  -5.00007908639975 42.00000622347574 0  -5.726164008267206 23.91633173071819 0  -5.974924923436787 24.18406669703831 0  -5.611866358606388 24.72590570380348 0  -6.223685774371192 24.45180168396492 0  -5.363105466760888 24.4581710706575 0  -5.000047122163666 25.00000647880327 0  -8.273890673741846 52.08367829959656 0  -8.025133318665015 51.81594330179453 0  -8.388187871743206 51.27410418139685 0  -7.776375901095762 51.54820832413077 0  -8.636945244613258 51.54183917878886 0  -9 50.99999999998153 0  -5.72618585347928 38.0836844997344 0  -5.974944343822872 37.81594805454941 0  -5.611886372656034 37.27411051739979 0  -6.223702898497698 37.54821163583226 0  -5.363127858200241 37.54184735510393 0  -5.000069660442259 37.00000592076809 0  -5.726180971966791 34.91633166212223 0  -5.97494059889733 35.18406657978056 0  -5.611883917145372 35.7259055073399 0  -6.223700161611599 35.45180151691298 0  -5.363124311151948 35.45817097038786 0  -5.000067852571802 36.00000617304217 0  -7.883808854124854 50.50017855971098 0  -7.830092364523189 51.02419345093183 0  -8.441904492534654 50.75008926106279 0  -6.116413531288035 36.50000651217134 0  -6.170058227122302 37.02410903076687 0  -5.558241551030984 36.75000741795039 0  -6.170056834362919 35.9759039737956 0  -5.55824074618392 36.25000735800477 0  -5.976734344684804 25.25996768158549 0  -6.100210036936873 24.85588469938652 0  -5.488390749302535 25.12998831576889 0  -8.027510293986627 25.74581757539526 0  -7.90438774030534 26.14374362620208 0  -8.513755176114783 25.87290878891454 0  -6.942361919350941 34.37590792680587 0  -6.583030948698011 34.91385475812627 0  -6.83998775046033 35.23840254924698 0  -7.199318731306539 34.70045577366245 0  -7.456275464449638 35.02500360815784 0  -7.057719525734139 52.6241017218557 0  -7.417047622720644 52.08615506076841 0  -7.160092949679975 51.76160738692533 0  -6.800764863080963 52.29955406885793 0  -6.543810121859521 51.97500643762006 0  -6.942366038258476 38.62410164560648 0  -6.583034559869133 38.08615667952058 0  -6.839990316627501 37.7616075991645 0  -7.199321784506268 38.29955262377495 0  -7.456277609569839 37.97500358795712 0  -6.942351257535517 23.37590796821617 0  -6.583018424385466 23.91385484806668 0  -6.839976557275781 24.23840266996665 0  -7.199309400673641 23.70045583690468 0  -7.456267465088151 24.02500368624073 0  -7.883937769108678 17.5000031457055 0  -7.832599192926392 18.02083655102883 0  -8.441968950280792 17.75000155297818 0  -7.832598620060218 16.97917001764611 0  -8.44196881883337 17.25000158370998 0  -7.883933039437026 8.500003222924391 0  -7.832594244979004 9.020836710265078 0  -8.441966585331139 8.750001612432095 0  -7.931242751686483 2.415598482149519 0  -7.856247402432913 2.978634193108848 0  -8.465621438553123 2.707799251621011 0  -7.832593673738202 7.979170030041516 0  -8.441966454285538 8.250001609173211 0  -7.832543634568974 49.97925770445361 0  -8.44190436136857 50.25008929058707 0  -6.02665333637307 41.59310550937184 0  -6.122729549462681 42.06738941596117 0
[...]
<PointData  Vectors="f_27"> 
<DataArray  type="Float64"  Name="f_27"  NumberOfComponents="3" format="ascii">0.0000000000000000e+00 0.0000000000000000e+00 0.0000000000000000e+00  9.4959458143533922e-09 -5.0036986853184092e-04 0.0000000000000000e+00  0.0000000000000000e+00 0.0000000000000000e+00 0.0000000000000000e+00  0.0000000000000000e+00 0.0000000000000000e+00 0.0000000000000000e+00  -7.9480346095537254e-07 -7.1040178468095036e-04 0.0000000000000000e+00  -2.5807370721893936e-07 -7.3237000854896859e-04 0.0000000000000000e+00  0.0000000000000000e+00 0.0000000000000000e+00 0.0000000000000000e+00  1.8388795037168503e-07 -5.1007372311679322e-04 0.0000000000000000e+00  0.0000000000000000e+00 0.0000000000000000e+00 0.0000000000000000e+00  0.0000000000000000e+00 0.0000000000000000e+00 0.0000000000000000e+00  1.1548028457189673e-06 -7.0925131190533233e-04 0.0000000000000000e+00  5.9867535598764661e-07 -7.3580812281147444e-04 0.0000000000000000e+00  0.0000000000000000e+00 0.0000000000000000e+00 0.0000000000000000e+00  1.1603745690257349e-07 -4.9999098422394634e-04 0.0000000000000000e+00  0.0000000000000000e+00 0.0000000000000000e+00 0.0000000000000000e+00  0.0000000000000000e+00 0.0000000000000000e+00 0.0000000000000000e+00  1.0654550233036984e-06 -7.0878734574445097e-04 0.0000000000000000e+00  5.0027813635111950e-07 -7.3546438933245843e-04 0.0000000000000000e+00  0.0000000000000000e+00 0.0000000000000000e+00 0.0000000000000000e+00  -9.9139620309440893e-08 -5.2520658258786680e-04 0.0000000000000000e+00  0.0000000000000000e+00 0.0000000000000000e+00 0.0000000000000000e+00  0.0000000000000000e+00 0.0000000000000000e+00 0.0000000000000000e+00  -5.8916983020657804e-07 -7.1133385975018226e-04 0.0000000000000000e+00  -2.3124301334028675e-07 -7.3708085367332537e-04 0.0000000000000000e+00  0.0000000000000000e+00 0.0000000000000000e+00 0.0000000000000000e+00  2.6539149493474039e-07 -5.2518719734316122e-04 0.0000000000000000e+00  1.3815043413040251e-06 -7.1108576745197911e-04 0.0000000000000000e+00  6.1953252225527009e-07 -7.3599200626852008e-04 0.0000000000000000e+00  0.0000000000000000e+00 0.0000000000000000e+00 0.0000000000000000e+00  0.0000000000000000e+00 0.0000000000000000e+00 0.0000000000000000e+00  0.0000000000000000e+00 0.0000000000000000e+00 0.0000000000000000e+00  -8.8208017886052394e-08 -5.2278447223986862e-04 0.0000000000000000e+00  0.0000000000000000e+00 0.0000000000000000e+00 0.0000000000000000e+00  0.0000000000000000e+00 0.0000000000000000e+00 0.0000000000000000e+00  9.8256010578043407e-08 -7.1687522842609657e-04 0.0000000000000000e+00  5.5465622344796157e-08 -7.3729440489732876e-04 0.0000000000000000e+00  0.0000000000000000e+00 0.0000000000000000e+00 0.0000000000000000e+00  -1.3002138516940237e-07 -4.9869400319778128e-04 0.0000000000000000e+00  -1.0549843143100061e-06 -7.0880260258920284e-04 0.0000000000000000e+00  -5.1693365011670702e-07 -7.3508260586517776e-04 0.0000000000000000e+00  0.0000000000000000e+00 0.0000000000000000e+00 0.0000000000000000e+00  0.0000000000000000e+00 0.0000000000000000e+00 0.0000000000000000e+00  0.0000000000000000e+00 0.0000000000000000e+00 0.0000000000000000e+00  4.6291033617963134e-07 -5.0837591578553143e-04 0.0000000000000000e+00  0.0000000000000000e+00 0.0000000000000000e+00 0.0000000000000000e+00  0.0000000000000000e+00 0.0000000000000000e+00 0.0000000000000000e+00  -2.3874691384071034e-07 -7.1717317921337980e-04 0.0000000000000000e+00  6.6161348375081328e-08 -7.3683311182386484e-04 0.0000000000000000e+00  0.0000000000000000e+00 0.0000000000000000e+00 0.0000000000000000e+00  3.3870758034434584e-07 -5.4529064089788536e-04 0.0000000000000000e+00  -5.3744212613560453e-07 -7.1268756811707220e-04 0.0000000000000000e+00  4.1108309708413639e-08 -7.3684801686919172e-04 0.0000000000000000e+00  0.0000000000000000e+00 0.0000000000000000e+00 0.0000000000000000e+00  0.0000000000000000e+00 0.0000000000000000e+00 0.0000000000000000e+00  0.0000000000000000e+00 0.0000000000000000e+00 0.0000000000000000e+00  -3.8484912723919392e-07 -5.4525759778170494e-04 0.0000000000000000e+00  5.2225727758153416e-07 -7.1275158671371859e-04 0.0000000000000000e+00  -9.1968072880412653e-08 -7.3664761632254432e-04 0.0000000000000000e+00  0.0000000000000000e+00 0.0000000000000000e+00 0.0000000000000000e+00  0.0000000000000000e+00 0.0000000000000000e+00 0.0000000000000000e+00  -1.3391777010387460e-08 -7.5806748564235583e-04 0.0000000000000000e+00  -1.4901634908445918e-07 -7.5854998766181926e-04 0.0000000000000000e+00  -1.2813344173924439e-07 -7.5870935189784798e-04 0.0000000000000000e+00  -1.5576630503423497e-07 -7.5872220926441556e-04 0.0000000000000000e+00  -1.1271361267714215e-07 -7.5858501419981742e-04 0.0000000000000000e+00  -4.7935925566103438e-07 -7.5549717472718860e-04 0.0000000000000000e+00  6.3486474485742413e-09 -7.5783971928265748e-04 0.0000000000000000e+00  -1.3058109712594869e-08 -7.5737687982198245e-04 0.0000000000000000e+00  1.0329697335018873e-08 -7.5838743898745903e-04 0.0000000000000000e+00  1.3934861888429339e-08 -7.5785257520165860e-04 0.0000000000000000e+00  -6.4216320302176152e-08 -7.5826640252544771e-04 0.0000000000000000e+00  -2.7997590915048184e-07 -7.5527408154956789e-04 0.0000000000000000e+00  -3.6909394178529720e-07 -7.5780421306318173e-04 0.0000000000000000e+00  -2.6807886943624815e-07 -7.5833230280399121e-04 0.0000000000000000e+00  -3.5561200093004323e-07 -7.5854085455241368e-04 0.0000000000000000e+00  -2.8067013202296024e-07 -7.5865088407410671e-04 0.0000000000000000e+00  -3.2922894017689972e-07 -7.5823774379221503e-04 0.0000000000000000e+00  -4.4442045120537240e-07 -7.5531993413947959e-04 0.0000000000000000e+00  -2.0928566014400349e-07 -7.5773190398467898e-04 0.0000000000000000e+00  -2.4654267663897318e-07 -7.5821765472881993e-04 0.0000000000000000e+00  -2.1756855498321226e-07 -7.5840053410174092e-04 0.0000000000000000e+00  -1.6380251080179921e-07 -7.5841578035119146e-04 0.0000000000000000e+00  -2.7573439163911102e-07 -7.5825816429649030e-04 0.0000000000000000e+00  -4.5240367455111912e-07 -7.5550032065683332e-04 0.0000000000000000e+00  -2.1274276511917794e-07 -7.5769016765655952e-04 0.0000000000000000e+00  -6.6283705945784590e-08 -7.5762842912857999e-04 0.0000000000000000e+00  -2.5105335518001494e-07 -7.5865285927076041e-04 0.0000000000000000e+00  -1.8952287511979253e-07 -7.5803107928536988e-04 0.0000000000000000e+00  -1.1339480172465070e-07 -7.5833530853959595e-04 0.0000000000000000e+00  -2.3772859111641403e-07 -7.5520096719762595e-04 0.0000000000000000e+00  -1.2746717782385740e-07 -7.5769943337661392e-04 0.0000000000000000e+00  5.9187826807885054e-09 -7.5831299121500030e-04 0.0000000000000000e+00  -4.9311828655404650e-08 -7.5844662612873336e-04 0.0000000000000000e+00  -5.9596582764336327e-08 -7.5845310757208034e-04 0.0000000000000000e+00  -2.3820458922688489e-08 -7.5834718120615808e-04 0.0000000000000000e+00  2.0976649450257577e-07 -7.5578367632870463e-04 0.0000000000000000e+00  1.7877972258606738e-07 -7.5771788500849974e-04 0.0000000000000000e+00  2.2217194711844806e-07 -7.5816173281170003e-04 0.0000000000000000e+00  1.7457755087569143e-07 -7.5837334125004299e-04 0.0000000000000000e+00  1.1153940710540067e-07 -7.5838304619660151e-04 0.0000000000000000e+00  2.7114855217182024e-07 -7.5820779788007191e-04 0.0000000000000000e+00  5.3786390924857878e-07 -7.5499235392758105e-04 0.0000000000000000e+00  -1.4151848183396220e-07 -7.5766471193242882e-04 0.0000000000000000e+00  -1.4066818784412248e-07 -7.5813361367757536e-04 0.0000000000000000e+00  -1.2679755079125684e-07 -7.5833381880142394e-04 0.0000000000000000e+00  -6.1892833875237715e-08 -7.5835753750910068e-04 0.0000000000000000e+00  -2.0033160515642114e-07 -7.5813663629813090e-04 0.0000000000000000e+00  -3.8095135119150288e-07 -7.5521156812648877e-04 0.0000000000000000e+00  8.4780169199819377e-09 -7.5784235865823646e-04 0.0000000000000000e+00  -2.6082084063469981e-09 -7.5736382254520810e-04 0.0000000000000000e+00  2.3926681847852651e-08 -7.5838686043779295e-04 0.0000000000000000e+00  3.9155042021367964e-08 -7.5785075998424602e-04 0.0000000000000000e+00  -6.6946590811629384e-08 -7.5825236573996203e-04 0.0000000000000000e+00  -2.8291680155771776e-07 -7.5524582939967663e-04 0.0000000000000000e+00  4.1209487736949530e-07 -7.5784137128238969e-04 0.0000000000000000e+00  2.2263718518220832e-07 -7.5756156449017652e-04 0.0000000000000000e+00  3.7286548764578122e-07 -7.5867175032236212e-04 0.0000000000000000e+00  2.8011736346751837e-07 -7.5794176854396896e-04 0.0000000000000000e+00  3.4508343659368310e-07 -7.5843041793636286e-04 0.0000000000000000e+00  5.4565470482026748e-07 -7.5489323177375706e-04 0.0000000000000000e+00  9.9363618013906196e-08 -7.5750118020808028e-04 0.0000000000000000e+00  1.7775035770331426e-07 -7.5833126113286154e-04 0.0000000000000000e+00  2.0189089699546391e-07 -7.5845315127674924e-04 0.0000000000000000e+00  2.2413455259001801e-07 -7.5817658214976291e-04 0.0000000000000000e+00  9.6427429725913378e-08 -7.5833853945671910e-04 0.0000000000000000e+00  3.0183157345280760e-07 -7.5552080225155097e-04 0.0000000000000000e+00  -5.5952899887430571e-08 -7.0517699450862070e-04 0.0000000000000000e+00  4.3906821131698159e-07 -7.4947963370016889e-04 0.0000000000000000e+00  8.8598377003213353e-07 -7.1729109718031317e-04 0.0000000000000000e+00  4.8641729210795928e-07 -4.9335232051000489e-04 0.0000000000000000e+00  0.0000000000000000e+00 0.0000000000000000e+00 0.0000000000000000e+00  8.0971827552410205e-08 -7.0623254880481919e-04 0.0000000000000000e+00  2.5575091542662644e-07 -7.4979819297526487e-04 0.0000000000000000e+00  5.6249540254474654e-07 -7.1828765411795497e-04 0.0000000000000000e+00  3.1438301059255709e-07 -4.9316220475308006e-04 0.0000000000000000e+00  0.0000000000000000e+00 0.0000000000000000e+00 0.0000000000000000e+00  -1.0120846002711636e-07 -7.0611875903684015e-04 0.0000000000000000e+00  -4.0884333762560290e-07 -7.4920455777898267e-04 0.0000000000000000e+00  -7.6585302849706860e-07 -7.2209366879959322e-04 0.0000000000000000e+00  -6.9100369653189052e-07 -4.8773377916744965e-04 0.0000000000000000e+00  0.0000000000000000e+00 0.0000000000000000e+00 0.0000000000000000e+00  2.0707860596939418e-07 -7.0556664326560541e-04 0.0000000000000000e+00  -1.3430232605810437e-07 -7.4962520266981731e-04 0.0000000000000000e+00  -5.0591726794787005e-07 -7.1790431695317085e-04 0.0000000000000000e+00  -2.4514956913170332e-07 -4.9301559213369664e-04 0.0000000000000000e+00  0.0000000000000000e+00 0.0000000000000000e+00 0.0000000000000000e+00  -3.6401711095719588e-08 -7.0579967007425456e-04 0.0000000000000000e+00  -2.9834957739411000e-07 -7.4943544479542251e-04 0.0000000000000000e+00  -6.6106316950333061e-07 -7.1836128054240283e-04 0.0000000000000000e+00  -3.5097019112221476e-07 -4.9304117543947843e-04 0.0000000000000000e+00  0.0000000000000000e+00 0.0000000000000000e+00 0.0000000000000000e+00  1.6500340082771380e-07 -7.0559463806930457e-04 0.0000000000000000e+00  5.0524453070184008e-07 -7.4940289635222230e-04 0.0000000000000000e+00  8.9455945490222897e-07 -7.1729469809620361e-04 0.0000000000000000e+00  5.3353251023419470e-07 -4.9335463971418028e-04 0.0000000000000000e+00  0.0000000000000000e+00 0.0000000000000000e+00 0.0000000000000000e+00  1.6745289930252471e-07 -7.0700152729023281e-04 0.0000000000000000e+00  3.7674960703165927e-07 -7.4955637907706798e-04 0.0000000000000000e+00  6.2814948311793939e-07 -7.2269263570144530e-04 0.0000000000000000e+00  6.3887050876791456e-07 -4.8811865975374421e-04 0.0000000000000000e+00  0.0000000000000000e+00 0.0000000000000000e+00 0.0000000000000000e+00  -3.1083913524820022e-07 -7.0681453014423369e-04 0.0000000000000000e+00  -5.5935223125774539e-07 -7.4932321876870745e-04 0.0000000000000000e+00  -8.6047814839899190e-07 -7.2219649003847750e-04 0.0000000000000000e+00  -7.5552745320458087e-07 -4.8783796767385058e-04 0.0000000000000000e+00  0.0000000000000000e+00 0.0000000000000000e+00 0.0000000000000000e+00  2.4111331817571324e-08 -7.0592931872183321e-04 0.0000000000000000e+00  -3.1326008172775061e-07 -7.4954827780183161e-04 0.0000000000000000e+00  -6.7351523303190093e-07 -7.1843913784395779e-04 0.0000000000000000e+00  -3.4063521993533574e-07 -4.9308876124380663e-04 0.0000000000000000e+00  0.0000000000000000e+00 0.0000000000000000e+00 0.0000000000000000e+00  -1.0414592228443470e-07 -7.0614804421575907e-04 0.0000000000000000e+00  -4.0979633083097067e-07 -7.4923513263539519e-04 0.0000000000000000e+00  -7.5944011303104674e-07 -7.2213430422638869e-04 0.0000000000000000e+00  -6.9103196265384224e-07 -4.8775561749527560e-04 0.0000000000000000e+00  0.0000000000000000e+00 0.0000000000000000e+00 0.0000000000000000e+00  -3.9230284160961796e-08 -7.0600130423351928e-04 0.0000000000000000e+00  -4.2596950816967691e-07 -7.4974701090843837e-04 0.0000000000000000e+00  -9.1856550913647926e-07 -7.1751515842215338e-04 0.0000000000000000e+00  -4.3905253919142892e-07 -4.9333413788649877e-04 0.0000000000000000e+00  0.0000000000000000e+00 0.0000000000000000e+00 0.0000000000000000e+00  -2.4316386367633827e-08 -7.0925050881410850e-04 0.0000000000000000e+00  2.2630928082692248e-07 -7.5014433391855471e-04 0.0000000000000000e+00  5.2988005153706797e-07 -7.1806817354731160e-04 0.0000000000000000e+00  2.0784206230071592e-07 -7.5513631915608459e-04 0.0000000000000000e+00  2.5135857754824252e-07 -4.9465779651471314e-04 0.0000000000000000e+00  0.0000000000000000e+00 0.0000000000000000e+00 0.0000000000000000e+00  1.2881876666357639e-07 -7.0870255892810125e-04 0.0000000000000000e+00  5.3978656525144170e-07 -7.4995855931457253e-04 0.0000000000000000e+00  9.2488581526290561e-07 -7.1728936481555436e-04 0.0000000000000000e+00  5.4945779647287065e-07 -7.5462808016572120e-04 0.0000000000000000e+00  4.8852980854225756e-07 -4.9493905412828715e-04 0.0000000000000000e+00  0.0000000000000000e+00 0.0000000000000000e+00 0.0000000000000000e+00  -2.0878096549696241e-07 -7.0887212860605521e-04 0.0000000000000000e+00  -5.6049046357718858e-07 -7.5003534112409980e-04 0.0000000000000000e+00  -9.0538317654491875e-07 -7.1743450938979562e-04 0.0000000000000000e+00  -5.3595818281216871e-07 -7.5487695207265815e-04 0.0000000000000000e+00  -5.1032208262386080e-07 -4.9503536791910751e-04 0.0000000000000000e+00  0.0000000000000000e+00 0.0000000000000000e+00 0.0000000000000000e+00  3.9978174410606570e-07 -7.1052335188952708e-04 0.0000000000000000e+00  6.4640497293530183e-07 -7.5000961174667940e-04 0.0000000000000000e+00  8.8881987751358622e-07 -7.2236493608952574e-04 0.0000000000000000e+00  4.7551482783015602e-07 -7.5539349899736007e-04 0.0000000000000000e+00  7.4765132259616834e-07 -4.8956075568178049e-04 0.0000000000000000e+00  0.0000000000000000e+00 0.0000000000000000e+00 0.0000000000000000e+00  2.4931191751802054e-07 -7.2404606264126240e-04 0.0000000000000000e+00  5.9193113834448500e-07 -7.5436997698089155e-04 0.0000000000000000e+00  1.0569541501797140e-06 -6.9559413464336396e-04 0.0000000000000000e+00  -1.5779194334570079e-07 -7.2418242003461253e-04 0.0000000000000000e+00  -5.3387492198355471e-07 -7.5448510892201339e-04 0.0000000000000000e+00  -1.0148330843710760e-06 -6.9577434698733808e-04 0.0000000000000000e+00  4.9220669395993773e-07 -7.5134407931172443e-04 0.0000000000000000e+00  1.6396863705085833e-07 -4.7376034213938203e-04 0.0000000000000000e+00  3.4546726193447724e-07 -7.3261034253026313e-04 0.0000000000000000e+00  2.6827784259523972e-07 -7.5496239921336698e-04 0.0000000000000000e+00  6.3910836006575050e-07 -6.9875611184996823e-04 0.0000000000000000e+00  4.0182748888430318e-07 -7.2939133067529175e-04 0.0000000000000000e+00  3.0724105900386493e-07 -7.5455656718522314e-04 0.0000000000000000e+00  6.6096129518502016e-07 -6.9927339567812084e-04 0.0000000000000000e+00  2.3937732881827063e-07 -7.5844407786642538e-04 0.0000000000000000e+00  2.2907552105627355e-07 -7.5758654325811111e-04 0.0000000000000000e+00  2.8256382385473418e-07 -7.5849323088150841e-04 0.0000000000000000e+00  2.5733878745692493e-07 -7.5864445779997495e-04 0.0000000000000000e+00  2.7058753930672382e-07 -7.5789447796627274e-04 0.0000000000000000e+00  2.0342992261840157e-07 -7.5778182618455991e-04 0.0000000000000000e+00  1.2127967251121653e-07 -7.5663382243074540e-04 0.0000000000000000e+00  2.9352824810499667e-07 -7.5837684269032795e-04 0.0000000000000000e+00  2.4557650047198160e-07 -7.5859687692573607e-04 0.0000000000000000e+00  3.1030256349426580e-07 -7.5745785304510190e-04 0.0000000000000000e+00  -1.6523804604673946e-07 -7.5843688299863116e-04 0.0000000000000000e+00  -1.6911642643205965e-07 -7.5752636075133962e-04 0.0000000000000000e+00  -2.4820377718042887e-07 -7.5846526679005494e-04 0.0000000000000000e+00  -2.0893609932503068e-07 -7.5865912920178454e-04 0.0000000000000000e+00  -2.3503592170743270e-07 -7.5791169180068130e-04 0.0000000000000000e+00  3.7169354802377080e-08 -7.5834002884576912e-04 0.0000000000000000e+00  -4.3100268529746371e-08 -7.5758904958985384e-04 0.0000000000000000e+00  -1.1838209981716166e-08 -7.5834296377474768e-04 0.0000000000000000e+00  2.2317240826799654e-08 -7.5853018321234372e-04 0.0000000000000000e+00  -4.6514115998928489e-08 -7.5737694864096573e-04 0.0000000000000000e+00  2.2556187551953996e-07 -7.2392549820385398e-04 0.0000000000000000e+00  5.7121137584791249e-07 -7.5434104732496053e-04 0.0000000000000000e+00  1.0286692941157964e-06 -6.9549060060031709e-04 0.0000000000000000e+00  -3.6385585861930733e-07 -7.5112284197630011e-04 0.0000000000000000e+00  -1.2436589136322773e-07 -4.7303395622037538e-04 0.0000000000000000e+00  1.6427840101089659e-07 -7.2401839548268782e-04 0.0000000000000000e+00  5.3132660423611334e-07 -7.5431370007095449e-04 0.0000000000000000e+00  1.0033405370548767e-06 -6.9549468064594700e-04 0.0000000000000000e+00  -1.5439220750620048e-08 -7.2997866967199261e-04 0.0000000000000000e+00  2.4266376827751318e-07 -7.5188814411551686e-04 0.0000000000000000e+00  4.8040802544283311e-08 -4.7735391080781005e-04 0.0000000000000000e+00  -4.7130020038479693e-07 -7.5117165608405093e-04 0.0000000000000000e+00  -1.5548711584454131e-07 -4.7305381532836805e-04 0.0000000000000000e+00  -3.5342425238252280e-07 -7.5116269394918077e-04 0.0000000000000000e+00  -1.1012377009576686e-07 -4.7308405921018995e-04 0.0000000000000000e+00  -7.8747360947076817e-07 -7.2781485612709947e-04 0.0000000000000000e+00  -6.9184093411187964e-07 -7.5490023961161199e-04 0.0000000000000000e+00  -1.3580056357796965e-06 -6.9638209799003324e-04 0.0000000000000000e+00  -1.0068580456338950e-07 -7.5822044382061686e-04 0.0000000000000000e+00  5.0650188198295403e-08 -7.5853951445737961e-04 0.0000000000000000e+00  -1.2960232303157813e-07 -7.5853231781077858e-04 0.0000000000000000e+00  3.3012675872986722e-07 -7.5852101697550071e-04 0.0000000000000000e+00  4.0785965148342633e-07 -7.5850048945437607e-04 0.0000000000000000e+00  2.9662574597857949e-07 -7.5869261506813167e-04 0.0000000000000000e+00  -2.3071438874158104e-07 -7.5852445288361050e-04 0.0000000000000000e+00  -3.4081894936801131e-07 -7.5856416222974817e-04 0.0000000000000000e+00  -2.2896326930835886e-07 -7.5867214420442873e-04 0.0000000000000000e+00  2.5604077309633910e-07 -7.5854320420042272e-04 0.0000000000000000e+00  3.6358948296743065e-07 -7.5860544091032082e-04 0.0000000000000000e+00  2.5911454399939560e-07 -7.5866554668284250e-04 0.0000000000000000e+00  -4.1379690351513272e-07 -7.2959251008046803e-04 0.0000000000000000e+00  -2.8573446994497125e-07 -7.5443817172380538e-04 0.0000000000000000e+00  -6.5162041297567784e-07 -6.9834824154346373e-04 0.0000000000000000e+00  -6.5896012149252218e-09 -7.5557214132380686e-04 0.0000000000000000e+00  -1.9064026154543579e-07 -7.5471091699006896e-04 0.0000000000000000e+00  -1.0781075849791931e-07 -7.5850858893137445e-04 0.0000000000000000e+00  3.2383752910661075e-07 -7.3713395390272141e-04 0.0000000000000000e+00  -4.8338005442094498e-08 -7.5348514139954000e-04 0.0000000000000000e+00  6.8251923395026381e-08 -7.5711426026260794e-04 0.0000000000000000e+00  -2.1694871262124598e-08 -7.5540934385347354e-04 0.0000000000000000e+00  -1.91268