<?xml version="1.0"?>
<VTKFile type="UnstructuredGrid"  version="0.1"  >
<UnstructuredGrid>
<Piece  NumberOfPoints="2690" NumberOfCells="4864">
<Points>
<DataArray  type="Float64"  NumberOfComponents="3"  format="ascii">-5.019024530497092 22.00416366599291 0  -5.618771779578496 21.26670783366852 0  -5.018641517127137 21.50450652617798 0  -5.018209503508114 21.00419439910137 0  -5.619140229641874 21.76678157677782 0  -6.219276651437498 21.52872535968705 0  -9 21.99999999996945 0  -8.3996522413034 21.26337050619641 0  -9 21.49999999997139 0  -9 20.99999999997333 0  -8.39971782283655 21.7633655938081 0  -7.799373560754549 21.52672043052036 0  -9 32.9999999999446 0  -8.401095481748319 32.26335694734157 0  -9 32.49999999994358 0  -9 31.99999999994255 0  -8.401161126365594 32.76335811103692 0  -7.802259959503965 32.5267065408914 0  -5.028607044420491 33.00450481262681 0  -5.54407934782496 32.30081595047434 0  -5.028204366073958 32.50510145199566 0  -5.027757425692835 32.00436327197018 0  -5.544458080086302 32.80093032569082 0  -6.060330123661737 32.59671066365749 0  -5.04700458053475 54.00431024138275 0  -5.643549586606389 54.74160591093958 0  -5.643187709649975 54.24178435299739 0  -6.239334902341423 54.47863141298642 0  -5.047413997404949 54.50461502629787 0  -5.047806523304661 55.00435068662902 0  -9 54.99999999998974 0  -8.476188357104597 54.29685000222581 0  -9 54.49999999998872 0  -9 53.99999999998769 0  -8.476244874767055 54.79683262694329 0  -7.952444607686732 54.5936707398102 0  -9 39.99999999995897 0  -8.402209724500466 40.73834395263032 0  -8.402144096863021 40.23834475696274 0  -7.804350683744435 40.47667737369111 0  -9 40.49999999996 0  -9 40.99999999996102 0  -5.035585717060175 41.00399596131605 0  -5.606371953980539 40.27211595244874 0  -5.035187677446268 40.50463758137217 0  -5.034770941692764 40.00450103526162 0  -5.606741584211466 40.77204788003639 0  -6.1779295281894 40.53937257711689 0  -9 55.99999999999179 0  -8.428820891536512 56.74410807201441 0  -8.428764856692787 56.24409720313062 0  -7.857588451797368 56.48819389927501 0  -9 56.49999999999282 0  -9 56.99999999999384 0  -5.048742685175679 56.00412240841574 0  -5.620496133964503 56.74745279394891 0  -5.62013552279179 56.24743576550357 0  -6.191480567914159 56.49023793567876 0  -5.049177756828009 56.50475284892423 0  -5.049568561956843 57.00436279801563 0  -7.452090279981791 43.00235652467386 0  -6.612185993830385 43.11185034204757 0  -7.21594474072317 43.3400930671254 0  -6.979834072735233 43.67783322771707 0  -6.848297767158418 42.77408834086994 0  -6.244443774916935 42.54582024966543 0  -6.588444373722671 49.00444004128876 0  -7.427261463072833 48.89469796154889 0  -6.824247020217287 48.66667191901861 0  -7.060085909209161 48.32889097232407 0  -7.191424922971775 49.23245695570397 0  -7.794344281747458 49.46050579016376 0  -6.586845983029544 46.0041722451819 0  -7.426220087731888 45.89452604903433 0  -6.822807183467714 45.66635689299406 0  -7.058804090958472 45.32856299016108 0  -7.19022584567464 46.2323172225443 0  -7.793544709261318 46.46044635293118 0  -6.566176578055224 7.004327796690276 0  -7.412741082221316 6.894647285585577 0  -6.804161560685571 6.666557082334144 0  -7.042182212129867 6.328787488691581 0  -7.174723131100001 7.232416473600184 0  -7.783209040884641 7.460501651102788 0  -7.447663716703253 30.0023300273485 0  -6.605356588514686 30.11179206733375 0  -7.21084298128307 30.34000346819374 0  -6.974057455727862 30.67766286605791 0  -6.842143929979703 29.77410492043722 0  -6.236562251098408 29.54590213119174 0  -6.564624836889361 4.004122103716433 0  -7.411809675184454 4.110859824385588 0  -6.803077661999279 4.341092366294763 0  -7.041496963252714 4.678048805685434 0  -7.173392552544689 3.77389464575887 0  -7.78221252927991 3.543694685183767 0  -6.567755003103261 10.00436664387076 0  -7.41384354090301 10.11102323327391 0  -6.805904990597665 10.3412821527387 0  -7.044020770317697 10.67819768744677 0  -7.175725416827365 9.774111651767061 0  -7.783756529729229 9.543851923507946 0  -6.569336879296205 13.0044029421553 0  -7.41480067024293 12.8947078733256 0  -6.80701111768602 12.66663365373261 0  -7.044720818998176 12.32886587540295 0  -7.17709292687421 13.23248227036892 0  -7.784788924221715 13.46054888753278 0  -6.570924009920307 16.00447037935024 0  -7.415835934717364 15.89472725426963 0  -6.808442363037203 15.66670593543815 0  -7.045996576975163 15.3289307735578 0  -7.178284057141931 16.23248640574591 0  -7.785583414319562 16.4605276955131 0  -6.572519938248696 19.00400242140191 0  -7.41695221679552 19.11073979044743 0  -6.810207786706676 19.34084732647221 0  -7.04785960910526 19.6777173431776 0  -7.179297932280224 18.77385716538112 0  -7.786137490639097 18.5437001633646 0  -6.576761198163677 27.00385217587257 0  -7.419717986829335 27.1106454442973 0  -6.814032158778612 27.34078115442697 0  -7.051268148401904 27.67771607125173 0  -7.182479922562783 26.77368701310523 0  -7.788259343510894 26.54355681321917 0  -8.27214889701834 19.09508016936786 0  -8.029157953976208 18.819383577836 0  -8.393032635965911 18.271861696226 0  -8.636030671420619 18.54755827151088 0  -9 17.99999999998495 0  -8.273420660103572 27.09503274343353 0  -8.030854625006951 26.8192952837547 0  -8.394093832292066 26.27177461328718 0  -8.636666890707868 26.54751561343622 0  -9 25.99999999995395 0  -8.271640269055414 15.9074253301025 0  -8.028597150202984 16.18397888264751 0  -8.392827614993893 16.73025434770353 0  -8.635863655820692 16.45370576825556 0  -9 16.99999999998883 0  -5.75220538592747 30.09899045067008 0  -5.994368049360293 29.82244066697823 0  -5.630885177124221 29.27600603178465 0  -5.388711042833267 29.55275100278079 0  -5.0250942779087 29.00415616605946 0  -8.271164185548511 12.90742388504078 0  -8.027961934966561 13.18398550722518 0  -8.39243016759711 13.73027625519554 0  -8.635625415630674 13.45371395996308 0  -9 13.99999999999401 0  -8.270719637830988 10.09521291522457 0  -8.027252591722908 9.819532599460603 0  -8.391842603246792 9.271925261089052 0  -8.635316698378125 9.547605622534373 0  -9 8.99999999999857 0  -8.269787518749158 4.09513559063033 0  -8.026013322140006 3.819418635011116 0  -8.39107725200331 3.271841281796959 0  -8.634855163059964 3.54755912840527 0  -9 2.999999999998668 0  -8.270217567765394 6.907393561540382 0  -8.026698765239104 7.183946775105857 0  -8.391640069666986 7.73025208385434 0  -8.635151762425011 7.453699323432336 0  -9 7.999999999999485 0  -8.276414749389701 45.90733771489965 0  -8.034965060213004 46.18388723885999 0  -8.396808282364534 46.73023064595771 0  -8.638250839295877 46.45368154439436 0  -9 46.99999999997333 0  -8.276893440550213 48.90740947308734 0  -8.035604064143584 49.18395992961698 0  -8.397208203737641 49.73024312401847 0  -8.638490513964534 49.45369871962514 0  -9 49.99999999997949 0  -5.761471280497148 43.09903996893481 0  -6.002941508609995 42.82242764482136 0  -5.640493917243551 42.27586564096774 0  -5.399013032336684 42.5526954880909 0  -5.036427390519583 42.00398956620571 0  -5.74309563357898 23.92146168464415 0  -5.990746523287974 24.18874891818662 0  -5.629989670786615 24.73108401851328 0  -6.238366490730956 24.45604949886304 0  -5.382355991206303 24.4639943501567 0  -5.021689324077559 25.00414565715546 0  -8.282091413848901 52.08484037812396 0  -8.036086638433567 51.81752837362088 0  -8.39498963588651 51.27512537487511 0  -7.79005274140689 51.55022805924889 0  -8.641002667015776 51.54243711867304 0  -9 50.99999999998153 0  -5.753191579120733 38.08875653658438 0  -5.999720185969908 37.82054243325725 0  -5.639231211972121 37.27913786180263 0  -6.246279649157417 37.55234437857723 0  -5.392690010429958 37.54758657501308 0  -5.032057100285396 37.00380399186696 0  -5.750933801438284 34.92142053648372 0  -5.997990416780381 35.18867821333451 0  -5.638105460396283 35.73096210420317 0  -6.245016148536504 35.45594892242433 0  -5.391063437104253 35.46393073769307 0  -5.031275247770632 36.0039642781267 0  -7.896029603243024 50.50210565392617 0  -7.84303502625469 51.0261720610193 0  -8.448045234825672 50.75104189118886 0  -6.139208639828166 36.50411299891899 0  -6.192748906903925 37.02820258581302 0  -5.585633389366797 36.754697378685 0  -6.192107409922762 35.98000520517893 0  -5.585264273318439 36.2546556586066 0  -5.993246914475559 25.26448241810713 0  -6.115797174698258 24.86027552983337 0  -5.507475166608038 25.1350738862291 0  -8.032923668984949 25.74731040586865 0  -7.910580844285685 26.1454334840679 0  -8.516475214600858 25.8736558639123 0  -6.957675246501469 34.37893709524887 0  -6.601302756999188 34.91746574770907 0  -6.856469948311774 35.24160568304525 0  -7.212847327116652 34.70311081214603 0  -7.467982749149662 35.0272772245282 0  -7.079885700362334 52.6271233946158 0  -7.434926740591303 52.08869761189149 0  -7.180743956879477 51.7646219866707 0  -6.825707410215365 52.30306005969583 0  -6.571492407223481 51.97900887775187 0  -6.959582252146736 38.62710605423194 0  -6.602973677118141 38.08974900806545 0  -6.857656812946925 37.7647967964802 0  -7.21426055079499 38.30218957535143 0  -7.468975442382251 37.97726454521929 0  -6.952749177750253 23.37895981608044 0  -6.595515220082265 23.91751848828063 0  -6.851296747031431 24.2416769798487 0  -7.208535752197625 23.70314704696679 0  -7.464285836639903 24.02732261245673 0  -7.888150243402364 17.50194992451869 0  -7.83713788616103 18.02283120941756 0  -8.444105567109629 17.75096358145841 0  -7.836872622524252 16.98124108619161 0  -8.444044685356177 17.25098122329091 0  -7.885973179092139 8.501996066133499 0  -7.834859089806145 9.022924381735558 0  -8.44301662699295 8.750998490273025 0  -7.931870495025508 2.417330275785455 0  -7.857029119023061 2.980507177182448 0  -8.465963835751442 2.708671042265705 0  -7.834596851419729 7.981249952350283 0  -8.442956467379913 8.250996625313638 0  -7.845192876319642 49.98130818516235 0  -8.447984177568593 50.25105916119681 0  -6.0534475645544 41.59713901077289 0  -6.148954761608464 42.07149684387169 0  -5.544937285386978
[...]
<PointData  Vectors="f_27"> 
<DataArray  type="Float64"  Name="f_27"  NumberOfComponents="3" format="ascii">0.0000000000000000e+00 0.0000000000000000e+00 0.0000000000000000e+00  1.9174541806024658e-06 -7.8220222766623246e-03 0.0000000000000000e+00  0.0000000000000000e+00 0.0000000000000000e+00 0.0000000000000000e+00  0.0000000000000000e+00 0.0000000000000000e+00 0.0000000000000000e+00  -1.4191945006315686e-05 -1.0942046976478608e-02 0.0000000000000000e+00  -1.2653957627704867e-06 -1.1260930750897404e-02 0.0000000000000000e+00  0.0000000000000000e+00 0.0000000000000000e+00 0.0000000000000000e+00  8.5130310145543277e-06 -7.9639018013827993e-03 0.0000000000000000e+00  0.0000000000000000e+00 0.0000000000000000e+00 0.0000000000000000e+00  0.0000000000000000e+00 0.0000000000000000e+00 0.0000000000000000e+00  3.1954299299652797e-05 -1.0921875532035743e-02 0.0000000000000000e+00  1.8720215747909833e-05 -1.1308319843518497e-02 0.0000000000000000e+00  0.0000000000000000e+00 0.0000000000000000e+00 0.0000000000000000e+00  7.5829765938106319e-06 -7.8028062416613947e-03 0.0000000000000000e+00  0.0000000000000000e+00 0.0000000000000000e+00 0.0000000000000000e+00  0.0000000000000000e+00 0.0000000000000000e+00 0.0000000000000000e+00  3.0695088472119980e-05 -1.0899702320731010e-02 0.0000000000000000e+00  1.7858793573406868e-05 -1.1286811858333180e-02 0.0000000000000000e+00  0.0000000000000000e+00 0.0000000000000000e+00 0.0000000000000000e+00  1.2671969986088130e-06 -8.1925290716765593e-03 0.0000000000000000e+00  0.0000000000000000e+00 0.0000000000000000e+00 0.0000000000000000e+00  0.0000000000000000e+00 0.0000000000000000e+00 0.0000000000000000e+00  -6.3746732062601303e-06 -1.0944058228757880e-02 0.0000000000000000e+00  2.0373838284436479e-06 -1.1315093375680594e-02 0.0000000000000000e+00  0.0000000000000000e+00 0.0000000000000000e+00 0.0000000000000000e+00  7.9434752577486304e-06 -8.1413952521553670e-03 0.0000000000000000e+00  3.2555022707456943e-05 -1.0893195389068501e-02 0.0000000000000000e+00  1.7433726511172156e-05 -1.1261689502635005e-02 0.0000000000000000e+00  0.0000000000000000e+00 0.0000000000000000e+00 0.0000000000000000e+00  0.0000000000000000e+00 0.0000000000000000e+00 0.0000000000000000e+00  0.0000000000000000e+00 0.0000000000000000e+00 0.0000000000000000e+00  4.0155132868160511e-06 -8.1285090313386321e-03 0.0000000000000000e+00  0.0000000000000000e+00 0.0000000000000000e+00 0.0000000000000000e+00  0.0000000000000000e+00 0.0000000000000000e+00 0.0000000000000000e+00  1.0296410511424236e-05 -1.0988324766648089e-02 0.0000000000000000e+00  8.9216713330710141e-06 -1.1286206107303095e-02 0.0000000000000000e+00  0.0000000000000000e+00 0.0000000000000000e+00 0.0000000000000000e+00  3.7224622559399253e-06 -7.7741706472006884e-03 0.0000000000000000e+00  -1.3853802510396206e-05 -1.0891119492060133e-02 0.0000000000000000e+00  -1.4801989823749486e-06 -1.1272274139386255e-02 0.0000000000000000e+00  0.0000000000000000e+00 0.0000000000000000e+00 0.0000000000000000e+00  0.0000000000000000e+00 0.0000000000000000e+00 0.0000000000000000e+00  0.0000000000000000e+00 0.0000000000000000e+00 0.0000000000000000e+00  1.2176612929940101e-05 -7.9186810229691304e-03 0.0000000000000000e+00  0.0000000000000000e+00 0.0000000000000000e+00 0.0000000000000000e+00  0.0000000000000000e+00 0.0000000000000000e+00 0.0000000000000000e+00  -9.6102396081590902e-07 -1.1013611020874021e-02 0.0000000000000000e+00  6.5039570937396995e-06 -1.1298181144166218e-02 0.0000000000000000e+00  0.0000000000000000e+00 0.0000000000000000e+00 0.0000000000000000e+00  1.3458905759752000e-05 -8.4397591522642756e-03 0.0000000000000000e+00  -3.4519219949309416e-06 -1.0924345684687899e-02 0.0000000000000000e+00  9.4496695151827101e-06 -1.1277744899940273e-02 0.0000000000000000e+00  0.0000000000000000e+00 0.0000000000000000e+00 0.0000000000000000e+00  0.0000000000000000e+00 0.0000000000000000e+00 0.0000000000000000e+00  0.0000000000000000e+00 0.0000000000000000e+00 0.0000000000000000e+00  -2.5094790682004890e-06 -8.4405874062493426e-03 0.0000000000000000e+00  1.7049319855253129e-05 -1.0923678373658981e-02 0.0000000000000000e+00  4.9235036982124808e-06 -1.1273997564703864e-02 0.0000000000000000e+00  0.0000000000000000e+00 0.0000000000000000e+00 0.0000000000000000e+00  0.0000000000000000e+00 0.0000000000000000e+00 0.0000000000000000e+00  1.1703595604969607e-05 -1.1592149990041127e-02 0.0000000000000000e+00  1.1610224386510556e-05 -1.1599719283029893e-02 0.0000000000000000e+00  1.0049968780823869e-05 -1.1601333452320072e-02 0.0000000000000000e+00  9.1998056510761693e-06 -1.1601815971588866e-02 0.0000000000000000e+00  1.0992265066330710e-05 -1.1600274307219520e-02 0.0000000000000000e+00  4.6799990371827184e-06 -1.1557697430434275e-02 0.0000000000000000e+00  1.5463541238090984e-05 -1.1578094156268528e-02 0.0000000000000000e+00  1.4090384359250596e-05 -1.1571637717676898e-02 0.0000000000000000e+00  1.5641756904842752e-05 -1.1586737360197075e-02 0.0000000000000000e+00  1.5428043511061794e-05 -1.1580476540032084e-02 0.0000000000000000e+00  1.3153456042867972e-05 -1.1584552794752503e-02 0.0000000000000000e+00  7.8223959353924643e-06 -1.1542097212594648e-02 0.0000000000000000e+00  7.8094845557162226e-06 -1.1583630764353689e-02 0.0000000000000000e+00  7.7740733138209620e-06 -1.1589898062013824e-02 0.0000000000000000e+00  6.6779077056468430e-06 -1.1594002463291099e-02 0.0000000000000000e+00  6.4994484176866707e-06 -1.1596608752632980e-02 0.0000000000000000e+00  7.7783069213952007e-06 -1.1588470857018003e-02 0.0000000000000000e+00  4.5269573850777999e-06 -1.1545030000946806e-02 0.0000000000000000e+00  9.8821138220875139e-06 -1.1635959849836289e-02 0.0000000000000000e+00  8.1206385237631249e-06 -1.1642453775379740e-02 0.0000000000000000e+00  9.0713593298295191e-06 -1.1645786273454719e-02 0.0000000000000000e+00  1.0030946634396330e-05 -1.1646686469560784e-02 0.0000000000000000e+00  7.9215175257573553e-06 -1.1643381983639029e-02 0.0000000000000000e+00  3.5176124192653753e-06 -1.1603730388098399e-02 0.0000000000000000e+00  7.9610817318589234e-06 -1.1604506497108204e-02 0.0000000000000000e+00  1.2759806321292520e-05 -1.1601977046867475e-02 0.0000000000000000e+00  7.6826792131565944e-06 -1.1618029627492628e-02 0.0000000000000000e+00  8.2931010481038647e-06 -1.1610602703053311e-02 0.0000000000000000e+00  1.0705867677810093e-05 -1.1612261287312417e-02 0.0000000000000000e+00  8.6130993780448324e-06 -1.1567208937880142e-02 0.0000000000000000e+00  1.3270604111325824e-05 -1.1642642970232502e-02 0.0000000000000000e+00  1.3677698136766433e-05 -1.1647800204408939e-02 0.0000000000000000e+00  1.3775746835048812e-05 -1.1651161614610304e-02 0.0000000000000000e+00  1.2834425792798616e-05 -1.1650385699600321e-02 0.0000000000000000e+00  1.3591668052694963e-05 -1.1649636300166518e-02 0.0000000000000000e+00  1.6967413870290014e-05 -1.1612092656825055e-02 0.0000000000000000e+00  1.7216830241849746e-05 -1.1633152614420945e-02 0.0000000000000000e+00  1.6688866537909949e-05 -1.1637198680208096e-02 0.0000000000000000e+00  1.6302626413797489e-05 -1.1640901635503589e-02 0.0000000000000000e+00  1.4836483552497782e-05 -1.1640346914769428e-02 0.0000000000000000e+00  1.8333039157405500e-05 -1.1639212813611990e-02 0.0000000000000000e+00  2.2984056832548201e-05 -1.1593658945801331e-02 0.0000000000000000e+00  1.0703562244032984e-05 -1.1626255962566811e-02 0.0000000000000000e+00  9.8792599676190580e-06 -1.1632644042152071e-02 0.0000000000000000e+00  1.0351697054117334e-05 -1.1636160249243440e-02 0.0000000000000000e+00  1.1571093947522804e-05 -1.1637197025008414e-02 0.0000000000000000e+00  9.0941232269186098e-06 -1.1632653022974823e-02 0.0000000000000000e+00  5.0166683779569614e-06 -1.1589869481858412e-02 0.0000000000000000e+00  1.4971301616540479e-05 -1.1624649557579237e-02 0.0000000000000000e+00  1.3744943181186450e-05 -1.1617832668748298e-02 0.0000000000000000e+00  1.5291836163442254e-05 -1.1633093895968442e-02 0.0000000000000000e+00  1.5232995402588849e-05 -1.1626734225237502e-02 0.0000000000000000e+00  1.2603870734052173e-05 -1.1630836967409939e-02 0.0000000000000000e+00  7.3376667094041663e-06 -1.1588204729421337e-02 0.0000000000000000e+00  2.2638368951621671e-05 -1.1619819517590019e-02 0.0000000000000000e+00  1.6663398023856725e-05 -1.1617081351576124e-02 0.0000000000000000e+00  2.0813812783399570e-05 -1.1632701179049208e-02 0.0000000000000000e+00  1.6969748925835620e-05 -1.1624191788533500e-02 0.0000000000000000e+00  2.0193624944101945e-05 -1.1629516220926598e-02 0.0000000000000000e+00  2.3221031504981529e-05 -1.1580973340585842e-02 0.0000000000000000e+00  1.7701940666613534e-05 -1.1605715171265286e-02 0.0000000000000000e+00  1.6053941806337616e-05 -1.1616850089640779e-02 0.0000000000000000e+00  1.8233357204985192e-05 -1.1618833231922197e-02 0.0000000000000000e+00  1.6304693006541962e-05 -1.1614926583691300e-02 0.0000000000000000e+00  1.5473579080935837e-05 -1.1617464905219815e-02 0.0000000000000000e+00  1.7753159864805127e-05 -1.1577358648382732e-02 0.0000000000000000e+00  9.2432419861932746e-06 -1.0892939332482750e-02 0.0000000000000000e+00  2.0028048068883725e-05 -1.1510397590171213e-02 0.0000000000000000e+00  2.8734973119524709e-05 -1.1016702259081933e-02 0.0000000000000000e+00  1.7230367301876146e-05 -7.8482130810028933e-03 0.0000000000000000e+00  0.0000000000000000e+00 0.0000000000000000e+00 0.0000000000000000e+00  1.1300789575078393e-05 -1.0894133025891787e-02 0.0000000000000000e+00  1.5842354064378014e-05 -1.1503070132386018e-02 0.0000000000000000e+00  2.0894335283455310e-05 -1.1012144879861440e-02 0.0000000000000000e+00  1.3226110327905661e-05 -7.8361417901970532e-03 0.0000000000000000e+00  0.0000000000000000e+00 0.0000000000000000e+00 0.0000000000000000e+00  9.5503243759407723e-06 -1.0908693658599060e-02 0.0000000000000000e+00  4.0026564763348600e-06 -1.1510499323118864e-02 0.0000000000000000e+00  -4.6005214650230017e-06 -1.1089778691933861e-02 0.0000000000000000e+00  -6.5819026804022831e-06 -7.7752135582708258e-03 0.0000000000000000e+00  0.0000000000000000e+00 0.0000000000000000e+00 0.0000000000000000e+00  1.7231161728918481e-05 -1.0880758441462085e-02 0.0000000000000000e+00  1.6987628309679613e-05 -1.1493831857245011e-02 0.0000000000000000e+00  5.5573680510051118e-07 -1.1010332297410070e-02 0.0000000000000000e+00  2.4734361338968461e-06 -7.8380492340949480e-03 0.0000000000000000e+00  0.0000000000000000e+00 0.0000000000000000e+00 0.0000000000000000e+00  1.0687684686848369e-05 -1.0906849700294917e-02 0.0000000000000000e+00  5.6988682163683641e-06 -1.1515180344092138e-02 0.0000000000000000e+00  -1.5387762090962092e-06 -1.1030116611292684e-02 0.0000000000000000e+00  7.6629111296500391e-07 -7.8512324575952253e-03 0.0000000000000000e+00  0.0000000000000000e+00 0.0000000000000000e+00 0.0000000000000000e+00  1.3967023554864956e-05 -1.0908291614076197e-02 0.0000000000000000e+00  2.1554329166734340e-05 -1.1519936484676741e-02 0.0000000000000000e+00  2.9111646438140379e-05 -1.1026867439371852e-02 0.0000000000000000e+00  1.8525673281840070e-05 -7.8595362395528865e-03 0.0000000000000000e+00  0.0000000000000000e+00 0.0000000000000000e+00 0.0000000000000000e+00  1.4150448104808944e-05 -1.0935759161702391e-02 0.0000000000000000e+00  1.8995334923045525e-05 -1.1531103771075173e-02 0.0000000000000000e+00  2.4834681394707283e-05 -1.1113758960365764e-02 0.0000000000000000e+00  2.1070484932319381e-05 -7.7980347300924497e-03 0.0000000000000000e+00  0.0000000000000000e+00 0.0000000000000000e+00 0.0000000000000000e+00  5.1782823766897487e-06 -1.0929756822503764e-02 0.0000000000000000e+00  5.6171133325434513e-07 -1.1524017281191080e-02 0.0000000000000000e+00  -6.8147841806749008e-06 -1.1102142457333611e-02 0.0000000000000000e+00  -8.1052712366990127e-06 -7.7892967006981360e-03 0.0000000000000000e+00  0.0000000000000000e+00 0.0000000000000000e+00 0.0000000000000000e+00  1.1688610341607118e-05 -1.0859483061735425e-02 0.0000000000000000e+00  5.6844883460424713e-06 -1.1469391031970123e-02 0.0000000000000000e+00  -1.3554526759337125e-06 -1.0986042676519323e-02 0.0000000000000000e+00  9.9889829578690879e-07 -7.8020568034586424e-03 0.0000000000000000e+00  0.0000000000000000e+00 0.0000000000000000e+00 0.0000000000000000e+00  9.7903244615149450e-06 -1.0860711484957836e-02 0.0000000000000000e+00  4.4156218834876559e-06 -1.1463825973673130e-02 0.0000000000000000e+00  -3.9843631238234004e-06 -1.1045162378523214e-02 0.0000000000000000e+00  -6.1711338374429278e-06 -7.7262865712826329e-03 0.0000000000000000e+00  0.0000000000000000e+00 0.0000000000000000e+00 0.0000000000000000e+00  1.3653618821899444e-05 -1.0869981215547109e-02 0.0000000000000000e+00  1.2490599832123235e-05 -1.1481220047089340e-02 0.0000000000000000e+00  -7.2196151395677851e-06 -1.0995578608916258e-02 0.0000000000000000e+00  -4.1059861031118161e-07 -7.8244099344710726e-03 0.0000000000000000e+00  0.0000000000000000e+00 0.0000000000000000e+00 0.0000000000000000e+00  1.4349855247041589e-05 -1.0939367824198009e-02 0.0000000000000000e+00  2.4023023112948381e-05 -1.1512589953535825e-02 0.0000000000000000e+00  2.0360615607648731e-05 -1.1003514489578968e-02 0.0000000000000000e+00  1.7734498612410380e-05 -1.1576261272972144e-02 0.0000000000000000e+00  1.3204075822240628e-05 -7.8496808644636165e-03 0.0000000000000000e+00  0.0000000000000000e+00 0.0000000000000000e+00 0.0000000000000000e+00  1.2967015751774296e-05 -1.0892644248786103e-02 0.0000000000000000e+00  2.2017122900677123e-05 -1.1469178341417105e-02 0.0000000000000000e+00  2.9161334294166765e-05 -1.0971174349455697e-02 0.0000000000000000e+00  2.2818119213672375e-05 -1.1530646804667765e-02 0.0000000000000000e+00  1.7137395513254786e-05 -7.8216372281096520e-03 0.0000000000000000e+00  0.0000000000000000e+00 0.0000000000000000e+00 0.0000000000000000e+00  1.1509236820374047e-05 -1.0916199406514081e-02 0.0000000000000000e+00  8.9311905468472552e-06 -1.1488614969058418e-02 0.0000000000000000e+00  -9.1148122279178237e-06 -1.1000911091205606e-02 0.0000000000000000e+00  2.9435946858090776e-06 -1.1553088927637083e-02 0.0000000000000000e+00  -1.6121186709232597e-06 -7.8560561682245820e-03 0.0000000000000000e+00  0.0000000000000000e+00 0.0000000000000000e+00 0.0000000000000000e+00  2.3133147967731160e-05 -1.0940550811268965e-02 0.0000000000000000e+00  3.2822119763179786e-05 -1.1495553534423143e-02 0.0000000000000000e+00  2.7944725549267854e-05 -1.1061527127641120e-02 0.0000000000000000e+00  2.3012775586716547e-05 -1.1565283788816241e-02 0.0000000000000000e+00  2.3572322791986219e-05 -7.7597583755206079e-03 0.0000000000000000e+00  0.0000000000000000e+00 0.0000000000000000e+00 0.0000000000000000e+00  1.6010112789416137e-05 -1.1101639728413064e-02 0.0000000000000000e+00  2.3916591348142379e-05 -1.1531663334830180e-02 0.0000000000000000e+00  3.3259907535601371e-05 -1.0702638738299438e-02 0.0000000000000000e+00  1.9922418766033813e-07 -1.1123747626614545e-02 0.0000000000000000e+00  -1.8336948457322510e-06 -1.1552811153288821e-02 0.0000000000000000e+00  -2.4413861931575601e-05 -1.0725696047733092e-02 0.0000000000000000e+00  1.9535679866997195e-05 -1.1513024376174040e-02 0.0000000000000000e+00  -3.3903168249863400e-07 -7.4457529263746826e-03 0.0000000000000000e+00  1.0243807561644545e-05 -1.1258726349405708e-02 0.0000000000000000e+00  1.5688897565202385e-05 -1.1575833302172831e-02 0.0000000000000000e+00  1.2154451123681235e-05 -1.0799744537731101e-02 0.0000000000000000e+00  1.7232353671510596e-05 -1.1215016286464747e-02 0.0000000000000000e+00  1.7292892762225267e-05 -1.1568662322557982e-02 0.0000000000000000e+00  2.4280221772864302e-05 -1.0803270721378691e-02 0.0000000000000000e+00  1.7271104813562704e-05 -1.1609408903559217e-02 0.0000000000000000e+00  1.9871406681901117e-05 -1.1595757859686676e-02 0.0000000000000000e+00  1.8488239992151216e-05 -1.1609653816896508e-02 0.0000000000000000e+00  1.7893786493038891e-05 -1.1611589124039702e-02 0.0000000000000000e+00  1.6791519079478655e-05 -1.1600615299515267e-02 0.0000000000000000e+00  1.6713192740052529e-05 -1.1573523416468612e-02 0.0000000000000000e+00  1.4376794824826304e-05 -1.1556711828882765e-02 0.0000000000000000e+00  1.8596231086144394e-05 -1.1581805427394821e-02 0.0000000000000000e+00  1.8406302803914328e-05 -1.1583951126578318e-02 0.0000000000000000e+00  1.9061359707755467e-05 -1.1567699076012001e-02 0.0000000000000000e+00  1.0187525470705022e-05 -1.1603476739271902e-02 0.0000000000000000e+00  1.2624151711178122e-05 -1.1588803412937781e-02 0.0000000000000000e+00  8.4476424836561213e-06 -1.1603268140261816e-02 0.0000000000000000e+00  9.3995288159319628e-06 -1.1606393797759270e-02 0.0000000000000000e+00  7.5617258796485243e-06 -1.1596286450371834e-02 0.0000000000000000e+00  1.3200103574571163e-05 -1.1623166511599347e-02 0.0000000000000000e+00  1.4360283598475048e-05 -1.1611534798400200e-02 0.0000000000000000e+00  1.2964102474927645e-05 -1.1622632916717260e-02 0.0000000000000000e+00  1.3455945448659035e-05 -1.1624678092173919e-02 0.0000000000000000e+00  1.0955043450753533e-05 -1.1608091068917021e-02 0.0000000000000000e+00  1.5599964611704699e-05 -1.1147308041990040e-02 0.0000000000000000e+00  2.3831535158927602e-05 -1.1578205453076511e-02 0.0000000000000000e+00  3.3224570422437298e-05 -1.0749281813492695e-02 0.0000000000000000e+00  4.8576414529270724e-06 -1.1536452034723713e-02 0.0000000000000000e+00  3.8895658295251431e-06 -7.4609811114034821e-03 0.0000000000000000e+00  1.4263728736545472e-05 -1.1160168371183141e-02 0.0000000000000000e+00  2.2975700265037420e-05 -1.1589114351770914e-02 0.0000000000000000e+00  3.2868669946532811e-05 -1.0760367329702291e-02 0.0000000000000000e+00  1.1754603795893090e-05 -1.1251397806885196e-02 0.0000000000000000e+00  1.6978925068744390e-05 -1.1564479659245454e-02 0.0000000000000000e+00  9.9326133211611539e-06 -7.5550881825485342e-03 0.0000000000000000e+00  2.3899815620714043e-06 -1.1548994786193407e-02 0.0000000000000000e+00  3.1752641766764104e-06 -7.4716194688584188e-03 0.0000000000000000e+00  5.3427327757527960e-06 -1.1489975732683377e-02 0.0000000000000000e+00  4.3030487019091693e-06 -7.4189601944703344e-03 0.0000000000000000e+00  -1.0717604933884700e-05 -1.1177779664922881e-02 0.0000000000000000e+00  -2.4120555223271783e-06 -1.1555204017120192e-02 0.0000000000000000e+00  -2.6827067325745642e-05 -1.0736445604703564e-02 0.0000000000000000e+00  9.8522337129327973e-06 -1.1621140011938881e-02 0.0000000000000000e+00  1.3246048488591750e-05 -1.1625894187213109e-02 0.0000000000000000e+00  9.8672434421467671e-06 -1.1624376322673042e-02 0.0000000000000000e+00  1.9163536467674746e-05 -1.1584954774477034e-02 0.0000000000000000e+00  2.0625312313362881e-05 -1.1585807722202610e-02 0.0000000000000000e+00  1.8448610683124607e-05 -1.1586294012135382e-02 0.0000000000000000e+00  6.8368002245483178e-06 -1.1605312894250513e-02 0.0000000000000000e+00  5.0439134787236288e-06 -1.1605840447341920e-02 0.0000000000000000e+00  7.7748877185168752e-06 -1.1607043563107147e-02 0.0000000000000000e+00  1.6073560603663212e-05 -1.1609899687664035e-02 0.0000000000000000e+00  1.8720337379618096e-05 -1.1611452597272726e-02 0.0000000000000000e+00  1.6846810476673277e-05 -1.1611538026576251e-02 0.0000000000000000e+00  -3.4793336057304347e-06 -1.1212434537217974e-02 0.0000000000000000e+00  4.1890817126218628e-06 -1.1562079121226445e-02 0.0000000000000000e+00  -1.6318941065460989e-05 -1.0783428107166924e-02 0.0000000000000000e+00  1.3004609938467066e-05 -1.1558410400364818e-02 0.0000000000000000e+00  1.2582870601394357e-05 -1.1547394106255876e-02 0.0000000000000000e+00  1.1432612695324931e-05 -1.1600770247832088e-02 0.0000000000000000e+00  1.9312565598720570e-05 -1.1278547856328683e-02 0.0000000000000000e+00  1.2422250472405826e-05 -1.1517869305649700e-02 0.0000000000000000e+00  1.5958503829964662e-05 -1.1570463041693723e-02 0.0000000000000000e+00  1.1468692747292220e-05 -1.1549824825245299e-02 0.0000000000000000e+00  8.8272673702173886e-06 -1.1536327030082862e-02 0.0000000000000000e+00  8.6811905827618120e-06 -1.159