<?xml version="1.0"?>
<VTKFile type="UnstructuredGrid"  version="0.1"  >
<UnstructuredGrid>
<Piece  NumberOfPoints="2690" NumberOfCells="4864">
<Points>
<DataArray  type="Float64"  NumberOfComponents="3"  format="ascii">-5.048905394624584 22.01072913773037 0  -5.643360226956521 21.27333276456986 0  -5.047933589985981 21.5116086495315 0  -5.046804632111991 21.01079083210048 0  -5.644319525172116 21.77352704437415 0  -6.239752608064986 21.53459311595237 0  -9 21.99999999996945 0  -8.404015264440973 21.26474206425331 0  -9 21.49999999997139 0  -9 20.99999999997333 0  -8.40418572953463 21.76472952480151 0  -7.808210842092404 21.52943103746639 0  -9 32.9999999999446 0  -8.407753552815118 32.26470720928403 0  -9 32.49999999994358 0  -9 31.99999999994255 0  -8.407923974311487 32.7647103984273 0  -7.815686503227821 32.52939545003863 0  -5.073714244195255 33.01160113168939 0  -5.582534055483481 32.30783683703877 0  -5.07269696646151 32.51314040365556 0  -5.071507304071429 32.01122843067041 0  -5.583524242626914 32.80813310667604 0  -6.093353212238954 32.60300313965103 0  -5.121632889919353 54.01106985659155 0  -5.707767922223384 54.74805405476882 0  -5.70682275765985 54.24851503465089 0  -6.291887263717507 54.48433732922398 0  -5.122727515619856 54.51188018833986 0  -5.123724995768578 55.01118620300431 0  -9 54.99999999998974 0  -8.48611978201115 54.29800787383306 0  -9 54.49999999998872 0  -9 53.99999999998769 0  -8.486268799621877 54.79796221173894 0  -7.972419148220717 54.5959390656293 0  -9 39.99999999995897 0  -8.410647542713305 40.73967259852625 0  -8.410477105733952 40.23967489518748 0  -7.82111684962358 40.47931792683313 0  -9 40.49999999996 0  -9 40.99999999996102 0  -5.091833773371196 41.01027265036692 0  -5.653713052789596 40.27887219298267 0  -5.090826486767251 40.51193292175154 0  -5.089725426092738 40.01156602393495 0  -5.654674418110741 40.77869791883343 0  -6.217564699327793 40.54524843940421 0  -9 55.99999999999179 0  -8.440129869794916 56.74533868903748 0  -8.439982427971009 56.24530993308422 0  -7.880119271840107 56.49061906500159 0  -9 56.49999999999282 0  -9 56.99999999999384 0  -5.126190465818698 56.01057741909607 0  -5.687584809656733 56.75393396595263 0  -5.686649431596058 56.25388936433807 0  -6.246950601486127 56.49587182844754 0  -5.127353518560402 56.51223538302766 0  -5.12834741113453 57.01121832299863 0  -7.475177708758449 43.00607403417442 0  -6.647899586823387 43.11765788367151 0  -7.242766021123384 43.34444144652178 0  -7.010443349540465 43.68281752143755 0  -6.880222310191415 42.77922430265318 0  -6.285111684519038 42.55237696898041 0  -6.629506682466209 49.01146085640318 0  -7.453978675202309 48.89923450038306 0  -6.861024312292326 48.67301233883842 0  -7.09264003871892 48.33452974601023 0  -7.22237089115302 49.2376600096084 0  -7.815073804537606 49.46394133256829 0  -6.62536432164972 46.01076599714703 0  -7.451279031833676 45.89878631877774 0  -6.857298698466773 45.67219281172534 0  -7.089326970165184 45.33367508922195 0  -7.219257254447387 46.23729626858422 0  -7.812994469004237 46.46378606036946 0  -6.571872101078489 7.011150706767427 0  -7.416395411421951 6.89908891128364 0  -6.809044227827256 6.67269610779753 0  -7.046310529964543 6.334244197314228 0  -7.179135664102441 7.237539283776242 0  -7.786244581049033 7.463919520395352 0  -7.463685874836478 30.00600547283874 0  -6.630168860599858 30.11750589284101 0  -7.229523455264746 30.3442089069203 0  -6.995451983482895 30.68237539282131 0  -6.864243339175207 29.77926679512018 0  -6.264642565146599 29.552587205868 0  -6.567908254266714 4.01061752779505 0  -7.414016162363131 4.115098065097066 0  -6.806275134442143 4.347009526873009 0  -7.04455982006225 4.683366408963341 0  -7.175736953416733 3.778719295649703 0  -7.783698895001629 3.546891030057279 0  -6.575922448207013 10.01124769689377 0  -7.419223577198843 10.11551932125882 0  -6.813517173383504 10.34749902787212 0  -7.051026671653749 10.6837507392391 0  -7.181707199320272 9.779278369283583 0  -7.787649117863603 9.54729609919978 0  -6.579983028301832 13.01134544216607 0  -7.4216798239103 12.8992457661167 0  -6.816356517667857 12.67289452290523 0  -7.052823599840401 12.33444724869186 0  -7.185216390871243 13.23770959997422 0  -7.790298063158645 13.46404180504148 0  -6.584063625829754 16.01151910543521 0  -7.424344643597762 15.89929646408581 0  -6.820036346494773 15.67308087037272 0  -7.056104576833771 15.33461478025032 0  -7.188283747757703 16.23772117746553 0  -7.792346341739421 16.4639882161297 0  -6.588218335532095 19.0103161123645 0  -7.427249927927094 19.11479212762688 0  -6.82463515516734 19.34638321922526 0  -7.060955966423377 19.68251531737608 0  -7.190921498915094 18.77862687438566 0  -7.793787714962468 18.54690773499988 0  -6.599207274716555 27.00993049878054 0  -7.434416918650178 27.11455053231133 0  -6.834537089915464 27.3462149747451 0  -7.069778276091605 27.68251496422333 0  -7.199172359221036 26.77818957617936 0  -7.799292195480025 26.54653886071515 0  -8.276879244348139 19.0969402446476 0  -8.035372090910244 18.82190700342978 0  -8.396799496064908 18.2734838598857 0  -8.638325121771256 18.54851715047587 0  -9 17.99999999998495 0  -8.280175485460148 27.09681870317467 0  -8.0397714848769 26.82168012502521 0  -8.399553605754777 26.27325955236863 0  -8.639975570794418 26.54840734146326 0  -9 25.99999999995395 0  -8.27555589889398 15.90951654895414 0  -8.033912988216732 16.18675848911228 0  -8.39626615963908 16.73196978692175 0  -8.637890611941641 16.45474060701119 0  -9 16.99999999998883 0  -5.785855745876612 30.10702208804555 0  -6.025208499154108 29.82979148110468 0  -5.664797648101451 29.28418060628047 0  -5.425426410221506 29.56191601917116 0  -5.06458035686487 29.0107143817285 0  -8.274329708911935 12.90951226085206 0  -8.032276222765024 13.18677477726734 0  -8.395240435939105 13.73202558050919 0  -8.637276214276051 13.45476133522237 0  -9 13.99999999999401 0  -8.273188994716726 10.09728094663836 0  -8.03045609276119 9.822288968155595 0  -8.393732841794034 9.273646281249439 0  -8.636484086124316 9.548638337550171 0  -9 8.99999999999857 0  -8.270802637088048 4.097081566585889 0  -8.02728441446331 3.821995250706916 0  -8.391775373663938 3.273429945832885 0  -8.635303280127337 3.548518521053724 0  -9 2.999999999998668 0  -8.271901207729627 6.909433771298519 0  -8.029035422926475 7.186674512640598 0  -8.393213283305164 7.731962961342708 0  -8.636060998571557 7.454723430547538 0  -9 7.999999999999485 0  -8.287939521643283 45.90929435139777 0  -8.05042910180109 46.18652771711594 0  -8.406589812268223 46.73191255824531 0  -8.644081872894169 46.45468029615292 0  -9 46.99999999997333 0  -8.289181098726843 48.90948192299609 0  -8.052088580560438 49.18671767299183 0  -8.407631365251907 49.73194544296585 0  -8.64470520037718 49.4547253395602 0  -9 49.99999999997949 0  -5.809917996382036 43.10715253379147 0  -6.047473413871518 42.829760406284 0  -5.689756345381135 42.28382116704569 0  -5.452185732728144 42.56177704013118 0  -5.094015131091201 42.01027936140853 0  -5.769811961796202 23.92956895826486 0  -6.015710751810182 24.19614625207353 0  -5.658590669148385 24.73925383757527 0  -6.261528979145359 24.46275893833407 0  -5.412747175755425 24.47318497188029 0  -5.055765152166827 25.010666396128 0  -8.295122641801049 52.08667861630506 0  -8.053488582190688 51.82003633451285 0  -8.405791842243449 51.27674181688609 0  -7.811777623139364 51.55342435144802 0  -8.647447551147692 51.54338345166262 0  -9 50.99999999998153 0  -5.795984227564579 38.09677698673824 0  -6.038974641705816 37.82780958455474 0  -5.682549275309926 37.28709948700627 0  -6.28204455453599 37.55887952495827 0  -5.439538062243322 37.55667627926866 0  -5.082645625737479 37.0098019047329 0  -5.790117065808438 34.9294652564702 0  -6.034478956706679 35.1959658170181 0  -5.679620400381108 35.73893978616292 0  -6.278760472923631 35.46250037836533 0  -5.435306772087115 35.47302328202209 0  -5.080603738274069 36.01018316933261 0  -7.915428903499079 50.50515701210057 0  -7.863586659863227 51.02930422429584 0  -8.457794446514082 50.75255023605432 0  -6.17530224994028 36.51059363353886 0  -6.228685446594071 37.03466980874251 0  -5.629005927913545 36.7620984335979 0  -6.227017159791149 35.98647776052107 0  -5.628039224544116 36.2619819831131 0  -6.019298150775156 25.2716097533246 0  -6.140390061356562 24.86720776428893 0  -5.537586036445133 25.14309662139938 0  -8.041462499938802 25.74966891142004 0  -7.920349854810646 26.14810352861147 0  -8.520765577625065 25.8748362074163 0  -6.981906482503351 34.38372456618863 0  -6.630222164607805 34.92317316582791 0  -6.882559039213988 35.24666705710239 0  -7.234256761923632 34.70730677386437 0  -7.486511700116704 35.03086997596868 0  -7.115123295563307 52.63190055439937 0  -7.46333754696421 52.09271959843768 0  -7.213551494742791 51.76939187282257 0  -6.865348696226245 52.30860543432213 0  -6.61547673121528 51.98534124215217 0  -6.986860443593672 38.63185285608578 0  -6.634563566753615 38.0954278804357 0  -6.885642921489977 37.76983783033336 0  -7.237928164966169 38.30635661236729 0  -7.489090699506865 37.98083747536332 0  -6.969145797735679 23.383781973811 0  -6.615227438324546 23.92330772823592 0  -6.869153383251805 24.24685006171139 0  -7.223086135314835 23.70739916415945 0  -7.476931885125011 24.03098628301681 0  -7.894747544356712 17.50502549195919 0  -7.844251536416916 18.02598261153242 0  -8.447452995178081 17.7524835310684 0  -7.843561719510705 16.98451271514161 0  -8.447294634378588 17.25252889614299 0  -7.889145879777603 8.505142271926212 0  -7.838382948973379 9.026220203089014 0  -8.444649651682257 8.75257228474155 0  -7.932841874595657 2.420064691941004 0  -7.858239209090279 2.983464276698309 0  -8.466493526956373 2.710047436360737 0  -7.837710164972771 7.984533711385008 0  -8.444495320338332 8.252567516552167 0  -7.865266739940853 49.98455552886809 0  -8.457633898508973 50.25259512987955 0  -6.095935739593002 41.60350319592175 0  -6.190548968425795 42.07798610576456 0  -5.5950
[...]
<PointData  Vectors="f_27"> 
<DataArray  type="Float64"  Name="f_27"  NumberOfComponents="3" format="ascii">0.0000000000000000e+00 0.0000000000000000e+00 0.0000000000000000e+00  4.5074386336868269e-06 -9.2411965025846303e-03 0.0000000000000000e+00  0.0000000000000000e+00 0.0000000000000000e+00 0.0000000000000000e+00  0.0000000000000000e+00 0.0000000000000000e+00 0.0000000000000000e+00  -1.0335834473008583e-05 -1.2946739163575806e-02 0.0000000000000000e+00  5.8359085736271364e-06 -1.3320996606392596e-02 0.0000000000000000e+00  0.0000000000000000e+00 0.0000000000000000e+00 0.0000000000000000e+00  2.0880676109158856e-05 -9.4089673091363873e-03 0.0000000000000000e+00  0.0000000000000000e+00 0.0000000000000000e+00 0.0000000000000000e+00  0.0000000000000000e+00 0.0000000000000000e+00 0.0000000000000000e+00  5.2353218824612651e-05 -1.2915972850991204e-02 0.0000000000000000e+00  3.6646649445555712e-05 -1.3375674157018319e-02 0.0000000000000000e+00  0.0000000000000000e+00 0.0000000000000000e+00 0.0000000000000000e+00  2.0423818033360323e-05 -9.1898256328026510e-03 0.0000000000000000e+00  0.0000000000000000e+00 0.0000000000000000e+00 0.0000000000000000e+00  0.0000000000000000e+00 0.0000000000000000e+00 0.0000000000000000e+00  5.1726435555852899e-05 -1.2857683264302014e-02 0.0000000000000000e+00  3.7512737785244556e-05 -1.3318444929298717e-02 0.0000000000000000e+00  0.0000000000000000e+00 0.0000000000000000e+00 0.0000000000000000e+00  7.1837043052315341e-06 -9.6541733661679001e-03 0.0000000000000000e+00  0.0000000000000000e+00 0.0000000000000000e+00 0.0000000000000000e+00  0.0000000000000000e+00 0.0000000000000000e+00 0.0000000000000000e+00  5.0223152051964991e-06 -1.2915217138668158e-02 0.0000000000000000e+00  1.4994399486137954e-05 -1.3355894577948595e-02 0.0000000000000000e+00  0.0000000000000000e+00 0.0000000000000000e+00 0.0000000000000000e+00  1.6092170546429329e-05 -9.5353978841524658e-03 0.0000000000000000e+00  4.5984656150573652e-05 -1.2777041726262863e-02 0.0000000000000000e+00  3.2118888814256684e-05 -1.3217901536496410e-02 0.0000000000000000e+00  0.0000000000000000e+00 0.0000000000000000e+00 0.0000000000000000e+00  0.0000000000000000e+00 0.0000000000000000e+00 0.0000000000000000e+00  0.0000000000000000e+00 0.0000000000000000e+00 0.0000000000000000e+00  1.7134232021068115e-05 -9.5191830298865104e-03 0.0000000000000000e+00  0.0000000000000000e+00 0.0000000000000000e+00 0.0000000000000000e+00  0.0000000000000000e+00 0.0000000000000000e+00 0.0000000000000000e+00  2.7818075540102707e-05 -1.2900159161386539e-02 0.0000000000000000e+00  2.6911424221193669e-05 -1.3253416983240181e-02 0.0000000000000000e+00  0.0000000000000000e+00 0.0000000000000000e+00 0.0000000000000000e+00  1.5441979595355181e-05 -9.1354095623675940e-03 0.0000000000000000e+00  7.3259809909199177e-07 -1.2827636182615254e-02 0.0000000000000000e+00  1.4568308140221533e-05 -1.3280272619488788e-02 0.0000000000000000e+00  0.0000000000000000e+00 0.0000000000000000e+00 0.0000000000000000e+00  0.0000000000000000e+00 0.0000000000000000e+00 0.0000000000000000e+00  0.0000000000000000e+00 0.0000000000000000e+00 0.0000000000000000e+00  1.8484194590160914e-05 -9.3015565253244149e-03 0.0000000000000000e+00  0.0000000000000000e+00 0.0000000000000000e+00 0.0000000000000000e+00  0.0000000000000000e+00 0.0000000000000000e+00 0.0000000000000000e+00  7.2469513944169595e-06 -1.2976146589897380e-02 0.0000000000000000e+00  1.7414530548193191e-05 -1.3310390423826686e-02 0.0000000000000000e+00  0.0000000000000000e+00 0.0000000000000000e+00 0.0000000000000000e+00  2.8929308993662651e-05 -9.8827462083228377e-03 0.0000000000000000e+00  1.2471047013594572e-05 -1.2819025403782347e-02 0.0000000000000000e+00  2.8174617476445156e-05 -1.3236750098850518e-02 0.0000000000000000e+00  0.0000000000000000e+00 0.0000000000000000e+00 0.0000000000000000e+00  0.0000000000000000e+00 0.0000000000000000e+00 0.0000000000000000e+00  0.0000000000000000e+00 0.0000000000000000e+00 0.0000000000000000e+00  7.3151485798976023e-06 -9.8869291536039586e-03 0.0000000000000000e+00  3.1459871956158371e-05 -1.2818203746455134e-02 0.0000000000000000e+00  1.9515276399451350e-05 -1.3231441607121426e-02 0.0000000000000000e+00  0.0000000000000000e+00 0.0000000000000000e+00 0.0000000000000000e+00  0.0000000000000000e+00 0.0000000000000000e+00 0.0000000000000000e+00  3.7384712110615856e-05 -1.3654303094824211e-02 0.0000000000000000e+00  4.1034730396113485e-05 -1.3664811489019645e-02 0.0000000000000000e+00  3.6145295548117474e-05 -1.3665441890707621e-02 0.0000000000000000e+00  3.4122359653875457e-05 -1.3665558309381664e-02 0.0000000000000000e+00  3.8560652705249437e-05 -1.3664318715032689e-02 0.0000000000000000e+00  3.2777274579154242e-05 -1.3616521239546479e-02 0.0000000000000000e+00  4.8314029623302182e-05 -1.3617358750249662e-02 0.0000000000000000e+00  4.4784417735380470e-05 -1.3612242056128382e-02 0.0000000000000000e+00  4.8764664896062493e-05 -1.3630285491091250e-02 0.0000000000000000e+00  4.7732351531565931e-05 -1.3624274099280322e-02 0.0000000000000000e+00  4.3808251365038164e-05 -1.3625865017461726e-02 0.0000000000000000e+00  3.5860108956465926e-05 -1.3575223298694998e-02 0.0000000000000000e+00  3.8116381406046502e-05 -1.3635611807584967e-02 0.0000000000000000e+00  3.3944347019642540e-05 -1.3642441169130678e-02 0.0000000000000000e+00  3.4227434927393026e-05 -1.3648160082396690e-02 0.0000000000000000e+00  3.0735709166515899e-05 -1.3652197687058552e-02 0.0000000000000000e+00  3.6312055026251256e-05 -1.3640340811665595e-02 0.0000000000000000e+00  3.0740675137806033e-05 -1.3586540417101724e-02 0.0000000000000000e+00  3.8601588225883210e-05 -1.3806465699292676e-02 0.0000000000000000e+00  3.4226670713653346e-05 -1.3815599890476147e-02 0.0000000000000000e+00  3.6484691913002938e-05 -1.3819974561455450e-02 0.0000000000000000e+00  3.7154063057282795e-05 -1.3822352064122001e-02 0.0000000000000000e+00  3.4766864333495048e-05 -1.3815915654807019e-02 0.0000000000000000e+00  2.8091211935275332e-05 -1.3767727843704199e-02 0.0000000000000000e+00  3.2809536039507375e-05 -1.3705991946834976e-02 0.0000000000000000e+00  4.1871771309248871e-05 -1.3700974751467242e-02 0.0000000000000000e+00  3.3164181988718125e-05 -1.3721056202167244e-02 0.0000000000000000e+00  3.2656342718986918e-05 -1.3711168042383509e-02 0.0000000000000000e+00  3.7719184870169082e-05 -1.3713728712147181e-02 0.0000000000000000e+00  3.6127272759088260e-05 -1.3660427763085322e-02 0.0000000000000000e+00  4.4411871105907113e-05 -1.3827297144847785e-02 0.0000000000000000e+00  4.1431048039971893e-05 -1.3828584141346445e-02 0.0000000000000000e+00  4.3240961364330577e-05 -1.3834774337274742e-02 0.0000000000000000e+00  4.1147885019706552e-05 -1.3832331645352218e-02 0.0000000000000000e+00  4.1984985181488929e-05 -1.3831553267482291e-02 0.0000000000000000e+00  4.3738704731650837e-05 -1.3784288211084350e-02 0.0000000000000000e+00  4.6037924483618768e-05 -1.3798147202632251e-02 0.0000000000000000e+00  4.3265371761417576e-05 -1.3801225378113289e-02 0.0000000000000000e+00  4.3339884623632694e-05 -1.3805793967020370e-02 0.0000000000000000e+00  4.1429815517314688e-05 -1.3803927240522618e-02 0.0000000000000000e+00  4.6388843834337885e-05 -1.3804536081743504e-02 0.0000000000000000e+00  5.0554967138272480e-05 -1.3750559303440889e-02 0.0000000000000000e+00  3.8565233058182705e-05 -1.3778936674232209e-02 0.0000000000000000e+00  3.5656385333464781e-05 -1.3788349737047718e-02 0.0000000000000000e+00  3.7083343162056894e-05 -1.3792629592212403e-02 0.0000000000000000e+00  3.8215148450351545e-05 -1.3795134011089571e-02 0.0000000000000000e+00  3.5410138092077122e-05 -1.3787289827872747e-02 0.0000000000000000e+00  2.9649001388126027e-05 -1.3735529944320590e-02 0.0000000000000000e+00  4.6291535615661315e-05 -1.3768227987507740e-02 0.0000000000000000e+00  4.2871631586776202e-05 -1.3762615568723734e-02 0.0000000000000000e+00  4.6737991458231761e-05 -1.3780638226820487e-02 0.0000000000000000e+00  4.5748795218613137e-05 -1.3774313822862214e-02 0.0000000000000000e+00  4.1739495732675329e-05 -1.3776674370316020e-02 0.0000000000000000e+00  3.3962937474300111e-05 -1.3725989756016192e-02 0.0000000000000000e+00  5.5696472269808679e-05 -1.3750844107906546e-02 0.0000000000000000e+00  4.3823646634389301e-05 -1.3751458677899755e-02 0.0000000000000000e+00  5.1101516166959012e-05 -1.3767940024580210e-02 0.0000000000000000e+00  4.2646664505733640e-05 -1.3757447392972385e-02 0.0000000000000000e+00  5.0045601138337357e-05 -1.3765876990080257e-02 0.0000000000000000e+00  5.1376004892613676e-05 -1.3711485063204552e-02 0.0000000000000000e+00  5.0588677863682894e-05 -1.3717431084166702e-02 0.0000000000000000e+00  4.3463842798201163e-05 -1.3729475990916062e-02 0.0000000000000000e+00  4.8714410133356911e-05 -1.3732216351840030e-02 0.0000000000000000e+00  4.2688672319149262e-05 -1.3726303927640141e-02 0.0000000000000000e+00  4.4068516698573209e-05 -1.3730495335139719e-02 0.0000000000000000e+00  4.3690606663210597e-05 -1.3683370985648168e-02 0.0000000000000000e+00  3.0728672411797996e-05 -1.2891914925948723e-02 0.0000000000000000e+00  4.5146683333839699e-05 -1.3627980720369557e-02 0.0000000000000000e+00  5.4948556088564834e-05 -1.3045211020401000e-02 0.0000000000000000e+00  3.4240493892354217e-05 -9.2691041433747862e-03 0.0000000000000000e+00  0.0000000000000000e+00 0.0000000000000000e+00 0.0000000000000000e+00  3.2829450908471281e-05 -1.2866155229927132e-02 0.0000000000000000e+00  3.9429843696074956e-05 -1.3593425399687822e-02 0.0000000000000000e+00  4.3869024493830605e-05 -1.3015030131051989e-02 0.0000000000000000e+00  2.8891171829469722e-05 -9.2278319212875728e-03 0.0000000000000000e+00  0.0000000000000000e+00 0.0000000000000000e+00 0.0000000000000000e+00  3.3711502204348246e-05 -1.2916724009482249e-02 0.0000000000000000e+00  2.8292777912975643e-05 -1.3633731132605477e-02 0.0000000000000000e+00  1.7576408804275864e-05 -1.3134801223447413e-02 0.0000000000000000e+00  7.9684178741868479e-06 -9.1857936229855688e-03 0.0000000000000000e+00  0.0000000000000000e+00 0.0000000000000000e+00 0.0000000000000000e+00  4.4983605562891579e-05 -1.2841479597820169e-02 0.0000000000000000e+00  5.7774025240713673e-05 -1.3569953146353919e-02 0.0000000000000000e+00  2.1261856722381265e-05 -1.3019273505152437e-02 0.0000000000000000e+00  1.7020206321086514e-05 -9.2381224614404497e-03 0.0000000000000000e+00  0.0000000000000000e+00 0.0000000000000000e+00 0.0000000000000000e+00  3.3739536370976202e-05 -1.2921792129762999e-02 0.0000000000000000e+00  2.8987044198736656e-05 -1.3646485994631001e-02 0.0000000000000000e+00  1.9956982399062029e-05 -1.3070850744049692e-02 0.0000000000000000e+00  1.5956437124485725e-05 -9.2833212489102177e-03 0.0000000000000000e+00  0.0000000000000000e+00 0.0000000000000000e+00 0.0000000000000000e+00  3.7366428013025549e-05 -1.2931790504616776e-02 0.0000000000000000e+00  4.7229289032332625e-05 -1.3661761370781485e-02 0.0000000000000000e+00  5.5599992548211143e-05 -1.3078218488547955e-02 0.0000000000000000e+00  3.6456236649445230e-05 -9.3043572664700501e-03 0.0000000000000000e+00  0.0000000000000000e+00 0.0000000000000000e+00 0.0000000000000000e+00  3.7449854544159447e-05 -1.2976290845752829e-02 0.0000000000000000e+00  4.4087469497390502e-05 -1.3686156297432408e-02 0.0000000000000000e+00  5.0254106493814903e-05 -1.3190781862984252e-02 0.0000000000000000e+00  3.9000424782612154e-05 -9.2429285217832131e-03 0.0000000000000000e+00  0.0000000000000000e+00 0.0000000000000000e+00 0.0000000000000000e+00  2.7374027750178873e-05 -1.2964633655354774e-02 0.0000000000000000e+00  2.2893121552456969e-05 -1.3672462669623938e-02 0.0000000000000000e+00  1.3930152834547261e-05 -1.3170714025305990e-02 0.0000000000000000e+00  5.4140789597801224e-06 -9.2255746073891549e-03 0.0000000000000000e+00  0.0000000000000000e+00 0.0000000000000000e+00 0.0000000000000000e+00  3.4785969421181763e-05 -1.2766130147141248e-02 0.0000000000000000e+00  2.9832456712130749e-05 -1.3494702752490810e-02 0.0000000000000000e+00  2.1421880232445811e-05 -1.2925817107923935e-02 0.0000000000000000e+00  1.6518935259172632e-05 -9.1285076634115177e-03 0.0000000000000000e+00  0.0000000000000000e+00 0.0000000000000000e+00 0.0000000000000000e+00  3.5060920406530261e-05 -1.2761446337016157e-02 0.0000000000000000e+00  3.0135989876300671e-05 -1.3481316939880358e-02 0.0000000000000000e+00  1.9750826276915875e-05 -1.2988528686302710e-02 0.0000000000000000e+00  9.5362708595671291e-06 -9.0322911896910281e-03 0.0000000000000000e+00  0.0000000000000000e+00 0.0000000000000000e+00 0.0000000000000000e+00  4.1955673294199413e-05 -1.2794802348658589e-02 0.0000000000000000e+00  5.4179861618752099e-05 -1.3523215785883622e-02 0.0000000000000000e+00  1.2663791424865661e-05 -1.2971434089601275e-02 0.0000000000000000e+00  1.4812479666022594e-05 -9.1883721489436077e-03 0.0000000000000000e+00  0.0000000000000000e+00 0.0000000000000000e+00 0.0000000000000000e+00  4.5112772570344895e-05 -1.2928288899150462e-02 0.0000000000000000e+00  6.4262865716117610e-05 -1.3615319716577172e-02 0.0000000000000000e+00  4.2632216808156363e-05 -1.2996566064534891e-02 0.0000000000000000e+00  4.6460106157497099e-05 -1.3690323279647627e-02 0.0000000000000000e+00  2.9961848517574071e-05 -9.2329981378877317e-03 0.0000000000000000e+00  0.0000000000000000e+00 0.0000000000000000e+00 0.0000000000000000e+00  3.5914385564116450e-05 -1.2793010648831874e-02 0.0000000000000000e+00  4.7624383857421967e-05 -1.3481283378762319e-02 0.0000000000000000e+00  5.5256666527772117e-05 -1.2897739322468738e-02 0.0000000000000000e+00  5.0253091814482403e-05 -1.3554690253458847e-02 0.0000000000000000e+00  3.4100852840047710e-05 -9.1423904490092363e-03 0.0000000000000000e+00  0.0000000000000000e+00 0.0000000000000000e+00 0.0000000000000000e+00  4.2520712132923072e-05 -1.2864943975945255e-02 0.0000000000000000e+00  4.9245794105934202e-05 -1.3542827352054095e-02 0.0000000000000000e+00  7.2031189584168529e-06 -1.2988098919519324e-02 0.0000000000000000e+00  2.9899491907841577e-05 -1.3621247954371529e-02 0.0000000000000000e+00  1.4438825437081174e-05 -9.2440760238571059e-03 0.0000000000000000e+00  0.0000000000000000e+00 0.0000000000000000e+00 0.0000000000000000e+00  5.5842883264718051e-05 -1.2896038254932912e-02 0.0000000000000000e+00  7.5703490550193121e-05 -1.3560716216433974e-02 0.0000000000000000e+00  5.0048612985017643e-05 -1.3036259495337122e-02 0.0000000000000000e+00  5.2738666112761956e-05 -1.3644636461944347e-02 0.0000000000000000e+00  4.1466887612232377e-05 -9.0890802792753730e-03 0.0000000000000000e+00  0.0000000000000000e+00 0.0000000000000000e+00 0.0000000000000000e+00  4.1733171315502923e-05 -1.3046426287521905e-02 0.0000000000000000e+00  5.1570806964229396e-05 -1.3557692881491088e-02 0.0000000000000000e+00  5.9221744191113594e-05 -1.2569663330182328e-02 0.0000000000000000e+00  6.3526777430936687e-06 -1.3113923429647345e-02 0.0000000000000000e+00  1.6153206116224253e-05 -1.3623189734907540e-02 0.0000000000000000e+00  -3.1716123975469741e-05 -1.2639656248558510e-02 0.0000000000000000e+00  4.1207242546733342e-05 -1.3577569307682889e-02 0.0000000000000000e+00  -9.2038250052233150e-06 -8.7510715851360325e-03 0.0000000000000000e+00  1.9949222306537025e-05 -1.3306908657752317e-02 0.0000000000000000e+00  3.7456532258448418e-05 -1.3686073351820718e-02 0.0000000000000000e+00  1.0032398724516366e-05 -1.2764769884889877e-02 0.0000000000000000e+00  3.9466815706749757e-05 -1.3252134048274425e-02 0.0000000000000000e+00  4.1276822638455581e-05 -1.3673531554618115e-02 0.0000000000000000e+00  4.6429209966529845e-05 -1.2759688847852448e-02 0.0000000000000000e+00  4.5039238007348097e-05 -1.3698840457395079e-02 0.0000000000000000e+00  5.2892442493412830e-05 -1.3682482712189621e-02 0.0000000000000000e+00  4.6731834603450502e-05 -1.3698814260119879e-02 0.0000000000000000e+00  4.6122658967013894e-05 -1.3700902386883608e-02 0.0000000000000000e+00  4.2381074784247798e-05 -1.3687052010389288e-02 0.0000000000000000e+00  4.5166859974772371e-05 -1.3598768224911413e-02 0.0000000000000000e+00  4.0837671219984679e-05 -1.3582938048997300e-02 0.0000000000000000e+00  4.7372587442761407e-05 -1.3611335761008137e-02 0.0000000000000000e+00  4.8490209118262947e-05 -1.3611446420982059e-02 0.0000000000000000e+00  4.8540710284172542e-05 -1.3591882885067335e-02 0.0000000000000000e+00  3.7143567491293906e-05 -1.3679403791506882e-02 0.0000000000000000e+00  4.4874640781518901e-05 -1.3662243250049427e-02 0.0000000000000000e+00  3.5397516537095174e-05 -1.3679596696874725e-02 0.0000000000000000e+00  3.6574681459955081e-05 -1.3683605113266916e-02 0.0000000000000000e+00  3.1952799990772643e-05 -1.3672451518893420e-02 0.0000000000000000e+00  3.9566967860367589e-05 -1.3746964507667376e-02 0.0000000000000000e+00  4.5899569334305438e-05 -1.3733780591650785e-02 0.0000000000000000e+00  4.0189233770931531e-05 -1.3746448710422816e-02 0.0000000000000000e+00  4.0363975248589106e-05 -1.3748106825511683e-02 0.0000000000000000e+00  3.5260473206234638e-05 -1.3727678522464370e-02 0.0000000000000000e+00  4.0872464642617131e-05 -1.3197802100774121e-02 0.0000000000000000e+00  5.1635338798313517e-05 -1.3710240466517816e-02 0.0000000000000000e+00  5.9656782941064818e-05 -1.2723366792641586e-02 0.0000000000000000e+00  2.9721635461714508e-05 -1.3661982321398588e-02 0.0000000000000000e+00  1.9486832141500508e-05 -8.8190808323560417e-03 0.0000000000000000e+00  3.8826034525163880e-05 -1.3236186054150426e-02 0.0000000000000000e+00  5.0209995795471174e-05 -1.3746450532006772e-02 0.0000000000000000e+00  5.9302750985235338e-05 -1.2758534961296246e-02 0.0000000000000000e+00  3.6088345467200180e-05 -1.3354440138754560e-02 0.0000000000000000e+00  4.2425307591000780e-05 -1.3727449493355285e-02 0.0000000000000000e+00  2.5618188666319022e-05 -8.9583992273388150e-03 0.0000000000000000e+00  2.5838926809030792e-05 -1.3700122612179309e-02 0.0000000000000000e+00  1.8323392864769285e-05 -8.8515872151750004e-03 0.0000000000000000e+00  3.1351506608472131e-05 -1.3509735764362180e-02 0.0000000000000000e+00  2.0514533347565989e-05 -8.6854297525612335e-03 0.0000000000000000e+00  -3.6386895741246228e-06 -1.3167942870181830e-02 0.0000000000000000e+00  1.9745682162044942e-05 -1.3616677110235332e-02 0.0000000000000000e+00  -2.7630269975000029e-05 -1.2640464135554374e-02 0.0000000000000000e+00  3.3842933304494078e-05 -1.3742948511004846e-02 0.0000000000000000e+00  3.8712733671537143e-05 -1.3749744438101577e-02 0.0000000000000000e+00  3.5031911660097474e-05 -1.3746937038433773e-02 0.0000000000000000e+00  4.7799975121215966e-05 -1.3617244494342680e-02 0.0000000000000000e+00  4.9303288442544615e-05 -1.3619602565904804e-02 0.0000000000000000e+00  4.7021290586302006e-05 -1.3616868502726531e-02 0.0000000000000000e+00  2.9958149753343512e-05 -1.3683796563618799e-02 0.0000000000000000e+00  2.8743397843640013e-05 -1.3683604381889876e-02 0.0000000000000000e+00  3.2522153046418195e-05 -1.3685517234217083e-02 0.0000000000000000e+00  4.0514362280233738e-05 -1.3697442686818974e-02 0.0000000000000000e+00  4.4380627101900171e-05 -1.3699740845493398e-02 0.0000000000000000e+00  4.2827785498938777e-05 -1.3699830461137335e-02 0.0000000000000000e+00  4.7305778041302741e-06 -1.3241992658119045e-02 0.0000000000000000e+00  2.5479168619834612e-05 -1.3657084395285020e-02 0.0000000000000000e+00  -2.0695623837955592e-05 -1.2725290929612857e-02 0.0000000000000000e+00  3.8981306477176474e-05 -1.3615558934781656e-02 0.0000000000000000e+00  4.4779234687270051e-05 -1.3603493464598828e-02 0.0000000000000000e+00  3.8526313910990026e-05 -1.3667047944723348e-02 0.0000000000000000e+00  4.8296666687777121e-05 -1.3265994467636513e-02 0.0000000000000000e+00  4.1195158276455027e-05 -1.3547746121796340e-02 0.0000000000000000e+00  4.7052342229110125e-05 -1.3611574898723297e-02 0.0000000000000000e+00  3.5364414426316576e-05 -1.3595539525843943e-02 0.0000000000000000e+00  3.3977437153140608e-05 -1.3576604010203596e-02 0.0000000000000000e+00  3.3325331933826457e-05 -1.3644639283106219e-02 0.00