<?xml version="1.0"?>
<VTKFile type="UnstructuredGrid"  version="0.1"  >
<UnstructuredGrid>
<Piece  NumberOfPoints="2690" NumberOfCells="4864">
<Points>
<DataArray  type="Float64"  NumberOfComponents="3"  format="ascii">-5.055111894133464 22.01208015268077 0  -5.64846922333854 21.2746951213859 0  -5.054019393898016 21.51306973767969 0  -5.052742903879586 21.01214606509941 0  -5.649553093360133 21.7749148917112 0  -6.244007897371469 21.53580033792301 0  -9 21.99999999996945 0  -8.404921628901056 21.26502437111275 0  -9 21.49999999997139 0  -9 20.99999999997333 0  -8.4051141608757 21.76501026929744 0  -7.810047087255727 21.52998892462398 0  -9 32.9999999999446 0  -8.4091408081336 32.26498506646735 0  -9 32.49999999994358 0  -9 31.99999999994255 0  -8.40933324218139 32.76498870170082 0  -7.818484250702038 32.52994876241285 0  -5.083109314752019 33.01306013476162 0  -5.590545531055211 32.30928065195207 0  -5.08196696292852 32.51479397348128 0  -5.080617028018265 32.01263921692836 0  -5.591665243638115 32.80961470657027 0  -6.100234447380931 32.60429751287085 0  -5.137252264616641 54.01245612964031 0  -5.72121435217145 54.74937659266545 0  -5.720145766905444 54.24989603446678 0  -6.302890109418835 54.48550829845617 0  -5.138495829095966 54.51337323644274 0  -5.139617424874654 55.01258710193407 0  -9 54.99999999998974 0  -8.488198693874383 54.29824573521059 0  -9 54.49999999998872 0  -9 53.99999999998769 0  -8.488367485605318 54.79819409309438 0  -7.976600934986809 54.59640479779401 0  -9 39.99999999995897 0  -8.412408873508319 40.73994578752067 0  -8.412216408042932 40.23994842755305 0  -7.824616554494226 40.47986082999019 0  -9 40.49999999996 0  -9 40.99999999996102 0  -5.103569642853723 41.01155967902798 0  -5.663593589070902 40.28025960217041 0  -5.102437988760865 40.51343120795238 0  -5.101190143256459 40.01301564828327 0  -5.664679547663025 40.78006356574748 0  -6.22583795278135 40.54645558512445 0  -9 55.99999999999179 0  -8.442499050754133 56.74559135540213 0  -8.442332118312834 56.24555878927699 0  -7.884839037495602 56.49111679857798 0  -9 56.49999999999282 0  -9 56.99999999999384 0  -5.142408899188195 56.01189916776553 0  -5.701638813435882 56.75526316992876 0  -5.700582813152144 56.25521272691749 0  -6.258570587470463 56.49702748135723 0  -5.143729981393986 56.51377323155051 0  -5.14484773891343 57.01262389318949 0  -7.479998591447073 43.006839790612 0  -6.655357765419545 43.11885454557669 0  -7.248366593236463 43.34533731003677 0  -7.016834751365869 43.68384444005233 0  -6.88688900594401 42.78028236093011 0  -6.293605155181822 42.55372808280108 0  -6.638081856209872 49.01291016840719 0  -7.459557910404712 48.90017113304594 0  -6.86870340023389 48.67432142099722 0  -7.099436663867284 48.3356940399612 0  -7.22883403975201 49.23873411119381 0  -7.819403550829135 49.46465056547979 0  -6.633406268200167 46.01212653334834 0  -7.456510575540509 45.89966518075686 0  -6.864499576097928 45.6733966359943 0  -7.095699192298492 45.33472924511356 0  -7.225318185613643 46.23832364779192 0  -7.817054895792074 46.46447523956105 0  -6.573043350395345 7.012556659376398 0  -7.417146408258217 6.900004092181221 0  -6.810047225746709 6.673961118663065 0  -7.047157800903915 6.335368548552077 0  -7.180043133299815 7.238594819419292 0  -7.78686892904119 7.464623738247194 0  -7.467022487316351 30.00676256445952 0  -6.635336769022684 30.11868301337763 0  -7.233414133874379 30.34507505628735 0  -6.999908363946585 30.68334575500214 0  -6.86884553457933 29.78033027321662 0  -6.270490477380871 29.55396487625127 0  -6.568582266055755 4.011955371371763 0  -7.414468692927061 4.115971064941968 0  -6.806930698367746 4.348228282865807 0  -7.045187418651134 4.68446173900962 0  -7.176218111046907 3.77971309607422 0  -7.784003859299498 3.547549436345144 0  -6.577606083837749 10.01266517851035 0  -7.420332150556781 10.11644559869133 0  -6.815085815784917 10.34877973613552 0  -7.052470128816569 10.68489478107448 0  -7.182939883053313 9.780342804684743 0  -7.788451060224648 9.548005683487069 0  -6.582180586815723 13.0127762242943 0  -7.423099122021032 12.90018092050675 0  -6.818284509316013 12.67418482978391 0  -7.054494464985888 12.3355974758915 0  -7.1868929601401 13.23878682040097 0  -7.791435009067042 13.4647615985714 0  -6.58677917340782 16.01297178022039 0  -7.426102915660707 15.90023817494115 0  -6.822431451142941 15.67439472017995 0  -7.058192133719924 15.33578621912018 0  -7.190350802709897 16.23880004415682 0  -7.793744572673758 16.46470145008599 0  -6.591473088890798 19.01161732762064 0  -7.429385093038007 19.11562714425451 0  -6.827627775335197 19.34752383037672 0  -7.063673483845593 19.68350360715896 0  -7.193330499908421 18.77960987357756 0  -7.795372767342835 18.54756880769203 0  -6.603876386063946 27.01118318345901 0  -7.437474752009994 27.11535524279501 0  -6.838802575226913 27.34733470733659 0  -7.07362919290849 27.68350374726905 0  -7.202644789416234 26.77911742552515 0  -7.801587288676189 26.54715332190579 0  -8.277859965061852 19.0973235261537 0  -8.036660031031783 18.82242703051079 0  -8.397579691797715 18.27381820380375 0  -8.638800497720631 18.54871477599696 0  -9 17.99999999998495 0  -8.281580720589137 27.09718671647357 0  -8.041626437281568 26.82217154177243 0  -8.400689332056107 26.27356550926445 0  -8.640663838830241 26.54859108130982 0  -9 25.99999999995395 0  -8.276365043792723 15.90994756198531 0  -8.035011752626872 16.18733138495904 0  -8.396977228957448 16.73232336564599 0  -8.638309660726444 16.45495390304204 0  -9 16.99999999998883 0  -5.792866132235615 30.10867706736686 0  -6.031632475708558 29.83130644629635 0  -5.671860577110987 29.28586669388942 0  -5.433076016401694 29.56380620954647 0  -5.072792900689218 29.01206540062957 0  -8.274982713151216 12.90994261444872 0  -8.03316639950167 13.18734956833545 0  -8.395820418644151 13.73238607054706 0  -8.637616846083219 13.45497716996801 0  -9 13.99999999999401 0  -8.273697719879852 10.09770701416933 0  -8.03111606720978 9.822856846706509 0  -8.394122162258938 9.274000858346398 0  -8.636724537425774 9.548851103738283 0  -9 8.99999999999857 0  -8.271010769708891 4.097482406348787 0  -8.027545110265789 3.822525993342396 0  -8.391918570848624 3.273757189241404 0  -8.635395175167002 3.548716139421048 0  -9 2.999999999998668 0  -8.272247157175014 6.909854131806406 0  -8.029515793652136 7.187236535196187 0  -8.393536914717011 7.732315464423007 0  -8.636247963165019 7.454934434130147 0  -9 7.999999999999485 0  -8.290345475431698 45.90969796866284 0  -8.05365744240342 46.18707250673102 0  -8.40863181424653 46.73225967899174 0  -8.645299157879885 46.45488638866716 0  -9 46.99999999997333 0  -8.291747099517245 48.90990983425268 0  -8.055531327544193 49.18728703883505 0  -8.409808625071792 49.73229686103045 0  -8.646003227335779 49.45493729084637 0  -9 49.99999999997949 0  -5.820037809256427 43.10882447932668 0  -6.056774761700253 42.83127184773232 0  -5.700045963952046 42.28546209019522 0  -5.463294796700409 42.56365025943681 0  -5.106032306466771 42.01157405096918 0  -5.77537081033249 23.93123957629935 0  -6.020904941939905 24.19767022048199 0  -5.664542260464368 24.74093530464485 0  -6.266348046026244 24.46414092749571 0  -5.419072961172336 24.47507715557003 0  -5.062843891050788 25.01200579930178 0  -8.297847501083035 52.08705760172313 0  -8.057126886347348 51.82055351555523 0  -8.408049706665143 51.2770752839817 0  -7.816319142847779 51.55408359972802 0  -8.648794816756309 51.54357864724455 0  -9 50.99999999998153 0  -5.804914856769692 38.09843000644982 0  -6.047166167774121 37.82930761612106 0  -5.691587833188632 37.28874198572524 0  -6.289507076491196 37.56022634807612 0  -5.449315860199722 37.55855174369737 0  -5.093188974772532 37.01103635329729 0  -5.798288566337073 34.93112310669211 0  -6.042088629044915 35.19746722253289 0  -5.688279095896661 35.74058147990176 0  -6.285797892326911 35.46384968038811 0  -5.444535912024755 35.47489540553848 0  -5.090879694734431 36.01145751342721 0  -7.91948238038507 50.50578671078993 0  -7.867881861547586 51.02995044138774 0  -8.459831738902686 50.75286149053229 0  -6.182830719058397 36.51192717069591 0  -6.23618242857983 37.03600165485265 0  -5.638052700811462 36.76362108085699 0  -6.234297963453566 35.98780979157274 0  -5.636959151082116 36.26348803877849 0  -6.024717990548613 25.27307715578866 0  -6.145506756834567 24.86863514243156 0  -5.543850755722331 25.14474739387688 0  -8.043238713172169 25.75015480460879 0  -7.922382000248246 26.14865365232173 0  -8.52165802338989 25.87507938688959 0  -6.986958377938322 34.38471088872048 0  -6.636252492193438 34.92434912111868 0  -6.887999492558542 35.24770966885021 0  -7.238720683450808 34.70817120420033 0  -7.490375295121121 35.0316100673129 0  -7.122493811931789 52.63288492854182 0  -7.469278373485708 52.09354881544089 0  -7.220410508733949 51.77037553106587 0  -6.873638833264566 52.30974859319559 0  -6.624673447174972 51.98664700867388 0  -6.992552890023751 38.63283045542174 0  -6.641155429407018 38.09659797626373 0  -6.891482300779295 37.77087641265663 0  -7.242866848466983 38.30721494472921 0  -7.493287818058596 37.98157344705167 0  -6.972555909052396 23.38477543606061 0  -6.619327988223873 23.92450053273515 0  -6.872867982124669 24.2479157734985 0  -7.226112451873291 23.70827516871972 0  -7.479562222866347 24.03174102934324 0  -7.896112836605296 17.50565941409356 0  -7.845724499234749 18.02663215805469 0  -8.448145912859195 17.75279682382735 0  -7.844945329893962 16.98518703292952 0  -8.447967030584635 17.25284790300634 0  -7.889799130930905 8.505790493610601 0  -7.839108761534807 9.026899237857965 0  -8.444985896484676 8.752896534483366 0  -7.9330411556536 2.420627977479319 0  -7.858487532152358 2.9840734224632 0  -8.466602173769211 2.710330960552397 0  -7.838350900261006 7.985210284742338 0  -8.444812051596664 8.252891172980799 0  -7.869460336268043 49.98522579959135 0  -8.459649990603237 50.25291215153183 0  -6.10480726884461 41.60481227075071 0  -6.199235119810364 42.0793223810
[...]
<PointData  Vectors="f_27"> 
<DataArray  type="Float64"  Name="f_27"  NumberOfComponents="3" format="ascii">0.0000000000000000e+00 0.0000000000000000e+00 0.0000000000000000e+00  5.5410695614103385e-06 -1.0236175075783964e-02 0.0000000000000000e+00  0.0000000000000000e+00 0.0000000000000000e+00 0.0000000000000000e+00  0.0000000000000000e+00 0.0000000000000000e+00 0.0000000000000000e+00  -9.9566892084313479e-06 -1.4343715175549724e-02 0.0000000000000000e+00  8.1973475758194880e-06 -1.4757443631179984e-02 0.0000000000000000e+00  0.0000000000000000e+00 0.0000000000000000e+00 0.0000000000000000e+00  2.5640292797254007e-05 -1.0421869197083523e-02 0.0000000000000000e+00  0.0000000000000000e+00 0.0000000000000000e+00 0.0000000000000000e+00  0.0000000000000000e+00 0.0000000000000000e+00 0.0000000000000000e+00  6.1430816794847131e-05 -1.4307948943040312e-02 0.0000000000000000e+00  4.3988430945284991e-05 -1.4817618804747874e-02 0.0000000000000000e+00  0.0000000000000000e+00 0.0000000000000000e+00 0.0000000000000000e+00  2.5294635443677026e-05 -1.0172370541842680e-02 0.0000000000000000e+00  0.0000000000000000e+00 0.0000000000000000e+00 0.0000000000000000e+00  0.0000000000000000e+00 0.0000000000000000e+00 0.0000000000000000e+00  6.0956992205043282e-05 -1.4235646549625381e-02 0.0000000000000000e+00  4.5404266394601407e-05 -1.4746528361046243e-02 0.0000000000000000e+00  0.0000000000000000e+00 0.0000000000000000e+00 0.0000000000000000e+00  9.3100364497551784e-06 -1.0687635701711464e-02 0.0000000000000000e+00  0.0000000000000000e+00 0.0000000000000000e+00 0.0000000000000000e+00  0.0000000000000000e+00 0.0000000000000000e+00 0.0000000000000000e+00  8.4802987258694347e-06 -1.4300706502197004e-02 0.0000000000000000e+00  1.9576888206351029e-05 -1.4789002801968303e-02 0.0000000000000000e+00  0.0000000000000000e+00 0.0000000000000000e+00 0.0000000000000000e+00  1.9440226823550712e-05 -1.0541681471242131e-02 0.0000000000000000e+00  5.2827378073799082e-05 -1.4128630310287145e-02 0.0000000000000000e+00  3.8361627714113077e-05 -1.4617749949574101e-02 0.0000000000000000e+00  0.0000000000000000e+00 0.0000000000000000e+00 0.0000000000000000e+00  0.0000000000000000e+00 0.0000000000000000e+00 0.0000000000000000e+00  0.0000000000000000e+00 0.0000000000000000e+00 0.0000000000000000e+00  2.1895175041464741e-05 -1.0523626671271935e-02 0.0000000000000000e+00  0.0000000000000000e+00 0.0000000000000000e+00 0.0000000000000000e+00  0.0000000000000000e+00 0.0000000000000000e+00 0.0000000000000000e+00  3.4528698889581562e-05 -1.4267090916100220e-02 0.0000000000000000e+00  3.3690778589331426e-05 -1.4658465761081527e-02 0.0000000000000000e+00  0.0000000000000000e+00 0.0000000000000000e+00 0.0000000000000000e+00  1.9702707504028218e-05 -1.0107163829625990e-02 0.0000000000000000e+00  4.7743551139785201e-06 -1.4197455905763661e-02 0.0000000000000000e+00  1.9972260148294817e-05 -1.4699061800177498e-02 0.0000000000000000e+00  0.0000000000000000e+00 0.0000000000000000e+00 0.0000000000000000e+00  0.0000000000000000e+00 0.0000000000000000e+00 0.0000000000000000e+00  0.0000000000000000e+00 0.0000000000000000e+00 0.0000000000000000e+00  2.1480478659703847e-05 -1.0290304647747784e-02 0.0000000000000000e+00  0.0000000000000000e+00 0.0000000000000000e+00 0.0000000000000000e+00  0.0000000000000000e+00 0.0000000000000000e+00 0.0000000000000000e+00  1.0054981935330681e-05 -1.4362772523100201e-02 0.0000000000000000e+00  2.1648491145625733e-05 -1.4732332227210210e-02 0.0000000000000000e+00  0.0000000000000000e+00 0.0000000000000000e+00 0.0000000000000000e+00  3.5106247120544926e-05 -1.0924880253083167e-02 0.0000000000000000e+00  1.7688776603356520e-05 -1.4175926575961549e-02 0.0000000000000000e+00  3.5207851699264090e-05 -1.4638380372018164e-02 0.0000000000000000e+00  0.0000000000000000e+00 0.0000000000000000e+00 0.0000000000000000e+00  0.0000000000000000e+00 0.0000000000000000e+00 0.0000000000000000e+00  0.0000000000000000e+00 0.0000000000000000e+00 0.0000000000000000e+00  1.0497863093761598e-05 -1.0930297238191897e-02 0.0000000000000000e+00  3.7549145361113387e-05 -1.4175118137032887e-02 0.0000000000000000e+00  2.4850531996674738e-05 -1.4632357863235636e-02 0.0000000000000000e+00  0.0000000000000000e+00 0.0000000000000000e+00 0.0000000000000000e+00  0.0000000000000000e+00 0.0000000000000000e+00 0.0000000000000000e+00  4.6898497530437859e-05 -1.5112024684021850e-02 0.0000000000000000e+00  5.1773461356006818e-05 -1.5123945437454054e-02 0.0000000000000000e+00  4.5675405864387616e-05 -1.5124380136682323e-02 0.0000000000000000e+00  4.3206769874623822e-05 -1.5124372776287313e-02 0.0000000000000000e+00  4.8660108444153639e-05 -1.5123222183059507e-02 0.0000000000000000e+00  4.2642455067232252e-05 -1.5070862354550775e-02 0.0000000000000000e+00  6.0547342187430655e-05 -1.5066132051293488e-02 0.0000000000000000e+00  5.6191841796677623e-05 -1.5061049253999913e-02 0.0000000000000000e+00  6.1109753205718228e-05 -1.5081098790200149e-02 0.0000000000000000e+00  5.9762877043655929e-05 -1.5074789957252532e-02 0.0000000000000000e+00  5.5130361011035284e-05 -1.5075719442054920e-02 0.0000000000000000e+00  4.5942904103732853e-05 -1.5019528858237584e-02 0.0000000000000000e+00  4.8955545999808172e-05 -1.5089206467775416e-02 0.0000000000000000e+00  4.3406574047887910e-05 -1.5096668774993622e-02 0.0000000000000000e+00  4.4097283682850927e-05 -1.5103206486111836e-02 0.0000000000000000e+00  3.9480646711153293e-05 -1.5107920116483679e-02 0.0000000000000000e+00  4.6540714297932894e-05 -1.5094213668097742e-02 0.0000000000000000e+00  3.9975922777944310e-05 -1.5034092103254740e-02 0.0000000000000000e+00  4.8971605985464583e-05 -1.5304857540054357e-02 0.0000000000000000e+00  4.3592603408231806e-05 -1.5315309846068829e-02 0.0000000000000000e+00  4.6382324207802902e-05 -1.5320263454408308e-02 0.0000000000000000e+00  4.7001760930494890e-05 -1.5323200696622316e-02 0.0000000000000000e+00  4.4348652091923248e-05 -1.5315482783763212e-02 0.0000000000000000e+00  3.6606118580778573e-05 -1.5261824215420003e-02 0.0000000000000000e+00  4.1760025788039313e-05 -1.5178409635151631e-02 0.0000000000000000e+00  5.2555624191004989e-05 -1.5172368564978346e-02 0.0000000000000000e+00  4.2294424362991279e-05 -1.5194852912645575e-02 0.0000000000000000e+00  4.1450571790175332e-05 -1.5183641294851905e-02 0.0000000000000000e+00  4.7587237383437468e-05 -1.5186674432792976e-02 0.0000000000000000e+00  4.6041282340644396e-05 -1.5127660421993002e-02 0.0000000000000000e+00  5.5740047126707821e-05 -1.5330890817069584e-02 0.0000000000000000e+00  5.1649314057315831e-05 -1.5331218157369953e-02 0.0000000000000000e+00  5.4021231768023139e-05 -1.5338589152810302e-02 0.0000000000000000e+00  5.1495307193263517e-05 -1.5335536316204764e-02 0.0000000000000000e+00  5.2426452791097940e-05 -1.5334692350929506e-02 0.0000000000000000e+00  5.3870317952024739e-05 -1.5281700698557700e-02 0.0000000000000000e+00  5.6880823158862278e-05 -1.5294460180201809e-02 0.0000000000000000e+00  5.3319039833786784e-05 -1.5297484377776586e-02 0.0000000000000000e+00  5.3501197370106866e-05 -1.5302588916065113e-02 0.0000000000000000e+00  5.1358187359589369e-05 -1.5300243444214783e-02 0.0000000000000000e+00  5.7072464901597008e-05 -1.5301373522283026e-02 0.0000000000000000e+00  6.1390115958127168e-05 -1.5241585755770155e-02 0.0000000000000000e+00  4.8715762837705178e-05 -1.5270614036366979e-02 0.0000000000000000e+00  4.5045721430990718e-05 -1.5281479107255577e-02 0.0000000000000000e+00  4.6856093703779985e-05 -1.5286250140154448e-02 0.0000000000000000e+00  4.8025174692492787e-05 -1.5289325630905513e-02 0.0000000000000000e+00  4.4900385204794921e-05 -1.5280057422281100e-02 0.0000000000000000e+00  3.8292870867242623e-05 -1.5222467760121330e-02 0.0000000000000000e+00  5.7896668992609163e-05 -1.5256682863222213e-02 0.0000000000000000e+00  5.3636859910477933e-05 -1.5251029929515974e-02 0.0000000000000000e+00  5.8410336050476622e-05 -1.5270998705199360e-02 0.0000000000000000e+00  5.7074803633195237e-05 -1.5264278949234718e-02 0.0000000000000000e+00  5.2421371900101770e-05 -1.5266293060285457e-02 0.0000000000000000e+00  4.3438819029405562e-05 -1.5210092712648010e-02 0.0000000000000000e+00  6.8405165607731054e-05 -1.5234655114120728e-02 0.0000000000000000e+00  5.4136516612581610e-05 -1.5236182494238186e-02 0.0000000000000000e+00  6.2745043925517598e-05 -1.5253981183026177e-02 0.0000000000000000e+00  5.2468070085724184e-05 -1.5242255978004039e-02 0.0000000000000000e+00  6.1511769331623676e-05 -1.5252118242768920e-02 0.0000000000000000e+00  6.2467423519999666e-05 -1.5192575844166346e-02 0.0000000000000000e+00  6.2858152162819508e-05 -1.5193504322124728e-02 0.0000000000000000e+00  5.3803473527287551e-05 -1.5206558162687287e-02 0.0000000000000000e+00  6.0220322633902202e-05 -1.5209678989782658e-02 0.0000000000000000e+00  5.2717966093202978e-05 -1.5202824114763706e-02 0.0000000000000000e+00  5.4763465941835046e-05 -1.5207787498407082e-02 0.0000000000000000e+00  5.3655255366982023e-05 -1.5155671548371219e-02 0.0000000000000000e+00  3.8622989093885873e-05 -1.4283935049858728e-02 0.0000000000000000e+00  5.4997658302838682e-05 -1.5100147683308494e-02 0.0000000000000000e+00  6.5752596112738751e-05 -1.4454838689894851e-02 0.0000000000000000e+00  4.1155723158590954e-05 -1.0267440934625085e-02 0.0000000000000000e+00  0.0000000000000000e+00 0.0000000000000000e+00 0.0000000000000000e+00  4.0876744273775639e-05 -1.4248902243159176e-02 0.0000000000000000e+00  4.8480201279696567e-05 -1.5055663625285336e-02 0.0000000000000000e+00  5.3054682935830775e-05 -1.4415395489005365e-02 0.0000000000000000e+00  3.5082989883150479e-05 -1.0215409323878710e-02 0.0000000000000000e+00  0.0000000000000000e+00 0.0000000000000000e+00 0.0000000000000000e+00  4.2506761680459674e-05 -1.4312939925915865e-02 0.0000000000000000e+00  3.6757999719589305e-05 -1.5107926081764984e-02 0.0000000000000000e+00  2.4738496679283194e-05 -1.4554859603462643e-02 0.0000000000000000e+00  1.2421346944402503e-05 -1.0176012979339073e-02 0.0000000000000000e+00  0.0000000000000000e+00 0.0000000000000000e+00 0.0000000000000000e+00  5.5446873333551694e-05 -1.4219572849283296e-02 0.0000000000000000e+00  7.2657430897583774e-05 -1.5026682127006870e-02 0.0000000000000000e+00  2.8350023380475732e-05 -1.4421477258822491e-02 0.0000000000000000e+00  2.2035702809527723e-05 -1.0228470186398698e-02 0.0000000000000000e+00  0.0000000000000000e+00 0.0000000000000000e+00 0.0000000000000000e+00  4.2239659550275601e-05 -1.4320290900122632e-02 0.0000000000000000e+00  3.7227044838879620e-05 -1.5123778973511881e-02 0.0000000000000000e+00  2.7096854797836632e-05 -1.4485582914032003e-02 0.0000000000000000e+00  2.1124829073425624e-05 -1.0285784202978541e-02 0.0000000000000000e+00  0.0000000000000000e+00 0.0000000000000000e+00 0.0000000000000000e+00  4.6182229516750711e-05 -1.4333296641381698e-02 0.0000000000000000e+00  5.7327142410390055e-05 -1.5142952507409097e-02 0.0000000000000000e+00  6.6489762066407882e-05 -1.4496416327711854e-02 0.0000000000000000e+00  4.3744795819304146e-05 -1.0311661294519502e-02 0.0000000000000000e+00  0.0000000000000000e+00 0.0000000000000000e+00 0.0000000000000000e+00  4.6221582329717003e-05 -1.4385364066203710e-02 0.0000000000000000e+00  5.3789251750357055e-05 -1.5172582976546745e-02 0.0000000000000000e+00  6.0478712684488755e-05 -1.4623361801089455e-02 0.0000000000000000e+00  4.6451404304422352e-05 -1.0246319042558906e-02 0.0000000000000000e+00  0.0000000000000000e+00 0.0000000000000000e+00 0.0000000000000000e+00  3.5197759160866198e-05 -1.4371400396900883e-02 0.0000000000000000e+00  3.0450968286043676e-05 -1.5156188916833409e-02 0.0000000000000000e+00  2.0440612516895684e-05 -1.4599677584665637e-02 0.0000000000000000e+00  9.4046988627901515e-06 -1.0225484370548640e-02 0.0000000000000000e+00  0.0000000000000000e+00 0.0000000000000000e+00 0.0000000000000000e+00  4.3456385786260975e-05 -1.4123836485559102e-02 0.0000000000000000e+00  3.8458349610750509e-05 -1.4931951461517063e-02 0.0000000000000000e+00  2.9104684657239111e-05 -1.4302358497676890e-02 0.0000000000000000e+00  2.1871024604515641e-05 -1.0091448642359124e-02 0.0000000000000000e+00  0.0000000000000000e+00 0.0000000000000000e+00 0.0000000000000000e+00  4.4337981297490225e-05 -1.4117022151163063e-02 0.0000000000000000e+00  3.9213347591112135e-05 -1.4915336973436279e-02 0.0000000000000000e+00  2.7577454513053534e-05 -1.4369952525237463e-02 0.0000000000000000e+00  1.4463678940811707e-05 -9.9832898068840884e-03 0.0000000000000000e+00  0.0000000000000000e+00 0.0000000000000000e+00 0.0000000000000000e+00  5.2332978019363981e-05 -1.4159399523134830e-02 0.0000000000000000e+00  6.9057215510043242e-05 -1.4966916658368230e-02 0.0000000000000000e+00  1.8962927439932438e-05 -1.4360843851682353e-02 0.0000000000000000e+00  1.9815812752937304e-05 -1.0165148658891269e-02 0.0000000000000000e+00  0.0000000000000000e+00 0.0000000000000000e+00 0.0000000000000000e+00  5.6424422931178130e-05 -1.4319859329001313e-02 0.0000000000000000e+00  7.9388491093173444e-05 -1.5082330047478578e-02 0.0000000000000000e+00  5.1494010618405649e-05 -1.4393240972917158e-02 0.0000000000000000e+00  5.7329200926255769e-05 -1.5165295970229987e-02 0.0000000000000000e+00  3.6413734590312026e-05 -1.0218853600521660e-02 0.0000000000000000e+00  0.0000000000000000e+00 0.0000000000000000e+00 0.0000000000000000e+00  4.4630685652384862e-05 -1.4150247058372470e-02 0.0000000000000000e+00  5.7860372548096849e-05 -1.4913584052360519e-02 0.0000000000000000e+00  6.6136543519270218e-05 -1.4268506774380628e-02 0.0000000000000000e+00  6.1152591959301523e-05 -1.4995006412019226e-02 0.0000000000000000e+00  4.1046748949072004e-05 -1.0104358106521757e-02 0.0000000000000000e+00  0.0000000000000000e+00 0.0000000000000000e+00 0.0000000000000000e+00  5.3675738745726000e-05 -1.4240938023094302e-02 0.0000000000000000e+00  6.3443127824090365e-05 -1.4991473748822145e-02 0.0000000000000000e+00  1.2191595693918965e-05 -1.4382054226296034e-02 0.0000000000000000e+00  3.9267934384936498e-05 -1.5078760220265991e-02 0.0000000000000000e+00  1.9655020760471502e-05 -1.0231189996184675e-02 0.0000000000000000e+00  0.0000000000000000e+00 0.0000000000000000e+00 0.0000000000000000e+00  6.8384177674639949e-05 -1.4276031928058874e-02 0.0000000000000000e+00  9.2297447583900756e-05 -1.5013534615235370e-02 0.0000000000000000e+00  5.9397709450041412e-05 -1.4430215119429093e-02 0.0000000000000000e+00  6.4314454965487452e-05 -1.5106743781782275e-02 0.0000000000000000e+00  4.8976015216090154e-05 -1.0050787740447461e-02 0.0000000000000000e+00  0.0000000000000000e+00 0.0000000000000000e+00 0.0000000000000000e+00  5.1580513912700024e-05 -1.4432263979057627e-02 0.0000000000000000e+00  6.2617797351941282e-05 -1.4998809650704796e-02 0.0000000000000000e+00  7.0340872115265781e-05 -1.3903375551671886e-02 0.0000000000000000e+00  8.5685641413888108e-06 -1.4517367612626734e-02 0.0000000000000000e+00  2.2245933059541470e-05 -1.5081514010352057e-02 0.0000000000000000e+00  -3.5670827652347640e-05 -1.3991720685563038e-02 0.0000000000000000e+00  4.9868747973310321e-05 -1.5031326618837586e-02 0.0000000000000000e+00  -1.2095686109964111e-05 -9.6831827111924906e-03 0.0000000000000000e+00  2.3948337221095864e-05 -1.4739128270070814e-02 0.0000000000000000e+00  4.5856605412847664e-05 -1.5159728304160352e-02 0.0000000000000000e+00  1.0256254916453116e-05 -1.4139402624975836e-02 0.0000000000000000e+00  4.8148045633452584e-05 -1.4677702008357940e-02 0.0000000000000000e+00  5.0558610644302240e-05 -1.5144935820624001e-02 0.0000000000000000e+00  5.5577442800797141e-05 -1.4131372308760262e-02 0.0000000000000000e+00  5.5604919138899843e-05 -1.5167322254790949e-02 0.0000000000000000e+00  6.5374568201780699e-05 -1.5149115687757730e-02 0.0000000000000000e+00  5.7525068356944111e-05 -1.5167150889678528e-02 0.0000000000000000e+00  5.6881334446921492e-05 -1.5169449724355509e-02 0.0000000000000000e+00  5.2179329242578625e-05 -1.5153901387868884e-02 0.0000000000000000e+00  5.5974515892164637e-05 -1.5042237193258924e-02 0.0000000000000000e+00  5.0833605191280681e-05 -1.5025621537969543e-02 0.0000000000000000e+00  5.8431902816323060e-05 -1.5056849380152294e-02 0.0000000000000000e+00  5.9953289376551963e-05 -1.5056409516335530e-02 0.0000000000000000e+00  5.9868695938112101e-05 -1.5034734732176081e-02 0.0000000000000000e+00  4.6952160302522504e-05 -1.5142716775708597e-02 0.0000000000000000e+00  5.6605173389618199e-05 -1.5123783889811296e-02 0.0000000000000000e+00  4.5100732873098964e-05 -1.5143096244924681e-02 0.0000000000000000e+00  4.6411416692422808e-05 -1.5147571669575925e-02 0.0000000000000000e+00  4.0738853115066704e-05 -1.5135422346915742e-02 0.0000000000000000e+00  4.9371095998772170e-05 -1.5228362876102727e-02 0.0000000000000000e+00  5.7505664930288855e-05 -1.5213849224220411e-02 0.0000000000000000e+00  5.0251815704469889e-05 -1.5227771725905098e-02 0.0000000000000000e+00  5.0364392518619652e-05 -1.5229455068139237e-02 0.0000000000000000e+00  4.4213590644156961e-05 -1.5206649614924250e-02 0.0000000000000000e+00  5.0451046143030208e-05 -1.4623726458507754e-02 0.0000000000000000e+00  6.2641045924409673e-05 -1.5191715781374503e-02 0.0000000000000000e+00  7.0843153239502683e-05 -1.4097617626142027e-02 0.0000000000000000e+00  3.8430773100872575e-05 -1.5138623012984692e-02 0.0000000000000000e+00  2.5002310874431173e-05 -9.7701400524080589e-03 0.0000000000000000e+00  4.8055913772500984e-05 -1.4671732497492200e-02 0.0000000000000000e+00  6.0937701998475723e-05 -1.5237368934369734e-02 0.0000000000000000e+00  7.0439642277063532e-05 -1.4141817093518017e-02 0.0000000000000000e+00  4.5061306662540835e-05 -1.4805062962919245e-02 0.0000000000000000e+00  5.2122683266574863e-05 -1.5218711249946414e-02 0.0000000000000000e+00  3.1567274103325518e-05 -9.9311253855499902e-03 0.0000000000000000e+00  3.3889593480243011e-05 -1.5186373968827724e-02 0.0000000000000000e+00  2.3626112901814305e-05 -9.8108337537344444e-03 0.0000000000000000e+00  4.0578938548027501e-05 -1.4946169278119779e-02 0.0000000000000000e+00  2.6316986967333656e-05 -9.6020400578462877e-03 0.0000000000000000e+00  -1.8324372046919951e-06 -1.4574662715125185e-02 0.0000000000000000e+00  2.7187254677440126e-05 -1.5071810662622901e-02 0.0000000000000000e+00  -2.9569224849076140e-05 -1.3989619939895843e-02 0.0000000000000000e+00  4.2608895274318238e-05 -1.5223480760117515e-02 0.0000000000000000e+00  4.8191129833490957e-05 -1.5231256078287497e-02 0.0000000000000000e+00  4.4193114912759242e-05 -1.5227946478751074e-02 0.0000000000000000e+00  5.8858163083218396e-05 -1.5063959395552308e-02 0.0000000000000000e+00  6.0468989704481893e-05 -1.5066844633119908e-02 0.0000000000000000e+00  5.8018202537008777e-05 -1.5063084051497465e-02 0.0000000000000000e+00  3.8294577803371578e-05 -1.5148188074993659e-02 0.0000000000000000e+00  3.7161014712421764e-05 -1.5147814048742216e-02 0.0000000000000000e+00  4.1450449078854742e-05 -1.5149997493055132e-02 0.0000000000000000e+00  4.9882575579503162e-05 -1.5165210822885602e-02 0.0000000000000000e+00  5.4317529612059532e-05 -1.5167852560190320e-02 0.0000000000000000e+00  5.2756716932444185e-05 -1.5167983856947957e-02 0.0000000000000000e+00  7.3946221209147237e-06 -1.4664822476322115e-02 0.0000000000000000e+00  3.3055075018058952e-05 -1.5124643809599022e-02 0.0000000000000000e+00  -2.3150949769922117e-05 -1.4090968706276045e-02 0.0000000000000000e+00  4.8648506359363347e-05 -1.5069258855017992e-02 0.0000000000000000e+00  5.6467132092611595e-05 -1.5056181821070604e-02 0.0000000000000000e+00  4.8475032151517193e-05 -1.5126605474322655e-02 0.0000000000000000e+00  5.9468946787290204e-05 -1.4677786737308237e-02 0.0000000000000000e+00  5.1838833893380170e-05 -1.4989433415367640e-02 0.0000000000000000e+00  5.8712973367594977e-05 -1.5060518858201586e-02 0.0000000000000000e+00  4.4311071012975383e-05 -1.5044886261036693e-02 0.0000000000000000e+00  4.3159788447562967e-05 -1.5023229602709864e-02 0.0000000000000000e+00  4.2343179487662862e-05 -1.5099148647238377e-02 0.00