<?xml version="1.0"?>
<VTKFile type="UnstructuredGrid"  version="0.1"  >
<UnstructuredGrid>
<Piece  NumberOfPoints="2690" NumberOfCells="4864">
<Points>
<DataArray  type="Float64"  NumberOfComponents="3"  format="ascii">-5.038221657292141 22.00839528298773 0  -5.634567183560041 21.27097864917204 0  -5.037458967496918 21.50908444525211 0  -5.036581760277988 21.00844812644121 0  -5.63531353488875 21.77112944545707 0  -6.232429508709256 21.53250750788054 0  -9 21.99999999996945 0  -8.402455181677976 21.26425444143218 0  -9 21.49999999997139 0  -9 20.99999999997333 0  -8.402587887736049 21.76424460823604 0  -7.805050527306435 21.52846738542578 0  -9 32.9999999999446 0  -8.405369047233364 32.2642272156598 0  -9 32.49999999994358 0  -9 31.99999999994255 0  -8.405501777773246 32.76422965811582 0  -7.810877738943139 32.52843960362589 0  -5.057562666610888 33.00907964498649 0  -5.568762736040584 32.30534194021886 0  -5.056762810717552 32.51028332788183 0  -5.055844228250168 32.00878994855582 0  -5.569531995553849 32.80557322311893 0  -6.081525812699166 32.60076675219024 0  -5.094841513716746 54.0086715594222 0  -5.684708306830441 54.74576574601149 0  -5.683973783564677 54.24612598105466 0  -6.273017512473852 54.48231177843343 0  -5.095685047088888 54.50929940001215 0  -5.096467563382933 55.00876115274514 0  -9 54.99999999998974 0  -8.482554135319432 54.29759661240767 0  -9 54.49999999998872 0  -9 53.99999999998769 0  -8.482669566006633 54.7975611535018 0  -7.965247221234008 54.59513361563922 0  -9 39.99999999995897 0  -8.407622661181902 40.73920047841444 0  -8.407489934854137 40.23920221267404 0  -7.815106426908448 40.47837966711177 0  -9 40.49999999996 0  -9 40.99999999996102 0  -5.071674361068584 41.00804554374125 0  -5.636743125069956 40.27647311941532 0  -5.070882946340992 40.50934227752581 0  -5.070030860572372 40.00905865044619 0  -5.637491369626343 40.77633650818046 0  -6.203356108957738 40.54316147451186 0  -9 55.99999999999179 0  -8.436067889703256 56.74490172006153 0  -8.435953594024213 56.24487944156452 0  -7.872026925313967 56.48975811290175 0  -9 56.49999999999282 0  -9 56.99999999999384 0  -5.098378665742641 56.00828904374187 0  -5.663488494103497 56.75163405517404 0  -5.66275976607702 56.25159940314501 0  -6.227027462646316 56.49387235601878 0  -5.09927518752343 56.50957724127419 0  -5.1000546551176 57.00878578505049 0  -7.46689966005369 43.00475177237071 0  -6.635093643666224 43.11559187437076 0  -7.233149169449278 43.3428946462917 0  -6.999468431000317 43.68104447045916 0  -6.868775203500168 42.77739741240394 0  -6.270528635344757 42.55004436891061 0  -6.614782803823585 49.00896062473005 0  -7.444398752509141 48.89761883196785 0  -6.847838041416327 48.67075420614996 0  -7.080968560443122 48.33252144022503 0  -7.21127391125622 49.23580709403249 0  -7.807640054656257 49.4627178573822 0  -6.611554446165457 46.00841849548897 0  -7.442295004748613 45.89726975761408 0  -6.844932853399567 45.67011543443601 0  -7.07838405618475 45.33185570290189 0  -7.208848984942659 46.23552361389345 0  -7.806021503363312 46.46259698744636 0  -6.569846517028772 7.008723409412393 0  -7.415096221982344 6.897508841486653 0  -6.807308736095545 6.670512120945313 0  -7.04484387064465 6.332303003245277 0  -7.177566315917555 7.235716890170994 0  -7.785164908360341 7.462703663488919 0  -7.457949312995505 30.00469821192167 0  -6.621284402299881 30.11547349376404 0  -7.222834679884733 30.34271324853665 0  -6.987791011610827 30.68069960144503 0  -6.856330886714145 29.77743065954913 0  -6.254588533528286 29.55020889816334 0  -6.566741637225186 4.008307346293189 0  -7.413232562947723 4.113590620450519 0  -6.8051397945502 4.344904987626084 0  -7.043472613648481 4.681475045796344 0  -7.174904061224767 3.777003275530116 0  -7.783170921425867 3.545754153765807 0  -6.573014020674895 10.00880012584949 0  -7.417308173280595 10.11391998614328 0  -6.810806961828922 10.34528765513782 0  -7.048532544779504 10.68177540922034 0  -7.17957745274258 9.777440486588246 0  -7.786263402785973 9.546070930573549 0  -6.576189202619468 13.00887540596858 0  -7.419229020419989 12.89763130665003 0  -6.81302720243554 12.6706669951156 0  -7.049937676006302 12.3324615129633 0  -7.18232178192865 13.23584986810937 0  -7.788335066712835 13.46279913289343 0  -6.579378222637341 16.00901125316884 0  -7.4213107471126 15.89767076035656 0  -6.815903016309949 15.67081270946526 0  -7.052501531364121 15.3325924607711 0  -7.184717597824138 16.23585868650799 0  -7.789934270723756 16.46275696158538 0  -6.582610943851148 19.00806982512543 0  -7.423571509044828 19.11335052555552 0  -6.819480495174613 19.34441395326516 0  -7.05627595150965 19.68080881950493 0  -7.186770457969301 18.7769299099848 0  -7.791056074541348 18.54576652771908 0  -6.591175536652102 27.00776799736659 0  -7.429157068594695 27.11316129577186 0  -6.827199789416696 27.34428188497701 0  -7.0631544138043 27.68080785356408 0  -7.193199261539116 26.77658777227068 0  -7.79534428750626 26.5454780377261 0  -8.275189608426682 19.09627853238204 0  -8.033152833544369 18.82100925060293 0  -8.395454715516841 18.27290669747288 0  -8.637505860701042 18.54817599287319 0  -9 17.99999999998495 0  -8.277758325283544 27.09618336144724 0  -8.036580713557308 26.82083173799839 0  -8.397599956341775 26.27273132480601 0  -8.638791633012897 26.54809012495071 0  -9 25.99999999995395 0  -8.274159722690902 15.90877249081407 0  -8.032017295797402 16.18576950085297 0  -8.39503962462722 16.73135941916287 0  -8.637167696893924 16.45437240240103 0  -9 16.99999999998883 0  -5.773805119625697 30.10416489728008 0  -6.014165071294029 29.82717623571308 0  -5.652655031814796 29.28127102469625 0  -5.412277514640119 29.55865404712863 0  -5.050452353410705 29.00838195787072 0  -8.273202037015198 12.90876928414044 0  -8.030739138532272 13.18578244157822 0  -8.394239077497817 13.73140322169497 0  -8.636688054399398 13.45438871156371 0  -9 13.99999999999401 0  -8.272309938562318 10.096545298736 0  -8.029315687838915 9.821308467168215 0  -8.393060033370674 9.273034072428032 0  -8.636068557168386 9.548270976531553 0  -9 8.99999999999857 0  -8.27044218803419 4.096389423768001 0  -8.026833000346006 3.821078803913085 0  -8.391527429717465 3.272864891714902 0  -8.635144147517716 3.548177287919358 0  -9 2.999999999998668 0  -8.271302688225834 6.908708000488905 0  -8.028204539639756 7.185704160376495 0  -8.392653677565736 7.731354347296906 0  -8.63573764671105 7.454359122583441 0  -9 7.999999999999485 0  -8.283807769507208 45.90859785249032 0  -8.044885070389393 46.18558769042181 0  -8.403083052831889 46.73131368733354 0  -8.641991406294117 46.45432470776885 0  -9 46.99999999997333 0  -8.284775119692204 48.90874380831509 0  -8.046177438749446 49.18573552496896 0  -8.403893372985314 49.7313392167428 0  -8.642476593340982 49.45435972244259 0  -9 49.99999999997949 0  -5.79254396811722 43.10426621215445 0  -6.031503974759871 42.82715133813252 0  -5.672090293051725 42.28098946302691 0  -5.433114947259294 42.55854446123997 0  -5.073373958848467 42.00804335412745 0  -5.760250888809202 23.92668486448543 0  -6.006776806685792 24.19351504807954 0  -5.648354587294154 24.73634940644763 0  -6.253240046560705 24.4603726592872 0  -5.40186886779521 24.46991703655987 0  -5.043580781491435 25.00835068966421 0  -8.29044675782351 52.08602444453433 0  -8.047244833100171 51.81914371693712 0  -8.40191660474717 51.27616638086673 0  -7.80398337191315 51.55228663263202 0  -8.645135331067623 51.54304659542402 0  -9 50.99999999998153 0  -5.780645305659433 38.09392342902665 0  -6.024904614903214 37.82522379682543 0  -5.667023585567764 37.28426536166405 0  -6.269226034319911 37.55655449452706 0  -5.422744722819972 37.55344032058225 0  -5.064525325711818 37.00766976455786 0  -5.776077299116047 34.92660326538578 0  -6.021404608855537 35.19337357244111 0  -5.66474433050011 35.73610384424195 0  -6.266669365399568 35.4601703944612 0  -5.419451771795025 35.46979006550742 0  -5.062939214991204 36.00797743391804 0  -7.908470735561255 50.50407056190699 0  -7.856214302627664 51.02818914953839 0  -8.45429740282253 50.75201319980507 0  -6.162368330044003 36.50828990442944 0  -6.215806643124709 37.03236985010005 0  -5.613463587109058 36.75946777509625 0  -6.214508149438467 35.98417677252011 0  -5.612713058133239 36.25937904033783 0  -6.009975667305343 25.26907545577998 0  -6.131589219437449 24.86474270960516 0  -5.526810541491238 25.14024487735422 0  -8.03840709339746 25.74882998773944 0  -7.916854226267461 26.14715374324472 0  -8.519230395397553 25.87441634973518 0  -6.97322548358505 34.38202164293324 0  -6.619860674603469 34.92114291267868 0  -6.87321133546487 35.24486682828851 0  -7.226586385191259 34.70581427737366 0  -7.479873076636115 35.02959210167933 0  -7.102477230074074 52.63020099497532 0  -7.453143085344172 52.09128828511648 0  -7.201780472467448 51.76769417213855 0  -6.851123592394068 52.30663211562712 0  -6.599694683759003 51.98308752484349 0  -6.97708299297293 38.63016468859312 0  -6.623240980476909 38.09340773222775 0  -6.875612458778176 37.76804466616402 0  -7.229445148526518 38.30487451105606 0  -7.481881204179907 37.97956666931969 0  -6.963279276208074 23.38206673845258 0  -6.6081738344454 23.92124840209688 0  -6.862763716539363 24.24501004020206 0  -7.217880012302915 23.70588670550334 0  -7.472407039566215 24.02968315644068 0  -7.892393343814387 17.5039311853875 0  -7.84171233119251 18.02486133448123 0  -8.446258325509815 17.75194271795742 0  -7.841175387916286 16.98334865796928 0  -8.446135070319954 17.25197821638947 0  -7.888016786449596 8.504023075524314 0  -7.837128648568016 9.025047794840077 0  -8.44406848642064 8.752012443509575 0  -7.932496849563399 2.419092094041797 0  -7.857809331683862 2.982412480837451 0  -8.466305404725043 2.709557879035577 0  -7.836602470945837 7.983365573556893 0  -8.443947782398888 8.25200870396735 0  -7.858067382831644 49.98339917840484 0  -8.454172918727187 50.25204819597405 0  -6.080701867991345 41.60124128551917 0  -6.175634457134502 42.07567837282169 0  
[...]
<PointData  Vectors="f_27"> 
<DataArray  type="Float64"  Name="f_27"  NumberOfComponents="3" format="ascii">0.0000000000000000e+00 0.0000000000000000e+00 0.0000000000000000e+00  3.0719847677866085e-06 -7.7764418182043544e-03 0.0000000000000000e+00  0.0000000000000000e+00 0.0000000000000000e+00 0.0000000000000000e+00  0.0000000000000000e+00 0.0000000000000000e+00 0.0000000000000000e+00  -1.0723941483031143e-05 -1.0888363525680891e-02 0.0000000000000000e+00  2.6021567640364513e-06 -1.1203990430017388e-02 0.0000000000000000e+00  0.0000000000000000e+00 0.0000000000000000e+00 0.0000000000000000e+00  1.4265206794855038e-05 -7.9176143592744816e-03 0.0000000000000000e+00  0.0000000000000000e+00 0.0000000000000000e+00 0.0000000000000000e+00  0.0000000000000000e+00 0.0000000000000000e+00 0.0000000000000000e+00  3.9609471037025418e-05 -1.0864594462652961e-02 0.0000000000000000e+00  2.6387734043518650e-05 -1.1250404207817050e-02 0.0000000000000000e+00  0.0000000000000000e+00 0.0000000000000000e+00 0.0000000000000000e+00  1.3684107600861214e-05 -7.7420573122076296e-03 0.0000000000000000e+00  0.0000000000000000e+00 0.0000000000000000e+00 0.0000000000000000e+00  0.0000000000000000e+00 0.0000000000000000e+00 0.0000000000000000e+00  3.8811210584850025e-05 -1.0825502031202272e-02 0.0000000000000000e+00  2.6542290547624745e-05 -1.1212137780931247e-02 0.0000000000000000e+00  0.0000000000000000e+00 0.0000000000000000e+00 0.0000000000000000e+00  4.2820611923845571e-06 -8.1315786227126544e-03 0.0000000000000000e+00  0.0000000000000000e+00 0.0000000000000000e+00 0.0000000000000000e+00  0.0000000000000000e+00 0.0000000000000000e+00 0.0000000000000000e+00  3.7052147817387027e-07 -1.0872322892019132e-02 0.0000000000000000e+00  8.7298720080757080e-06 -1.1242416116352660e-02 0.0000000000000000e+00  0.0000000000000000e+00 0.0000000000000000e+00 0.0000000000000000e+00  1.1453132947908779e-05 -8.0496679049690528e-03 0.0000000000000000e+00  3.6343414776006775e-05 -1.0780210429369677e-02 0.0000000000000000e+00  2.3439199219096915e-05 -1.1149721137576840e-02 0.0000000000000000e+00  0.0000000000000000e+00 0.0000000000000000e+00 0.0000000000000000e+00  0.0000000000000000e+00 0.0000000000000000e+00 0.0000000000000000e+00  0.0000000000000000e+00 0.0000000000000000e+00 0.0000000000000000e+00  1.0610442301752446e-05 -8.0364422544691727e-03 0.0000000000000000e+00  0.0000000000000000e+00 0.0000000000000000e+00 0.0000000000000000e+00  0.0000000000000000e+00 0.0000000000000000e+00 0.0000000000000000e+00  1.8585164589860589e-05 -1.0880919076993945e-02 0.0000000000000000e+00  1.7594222699068833e-05 -1.1177768499011486e-02 0.0000000000000000e+00  0.0000000000000000e+00 0.0000000000000000e+00 0.0000000000000000e+00  9.6035561132541397e-06 -7.7026114704659898e-03 0.0000000000000000e+00  -4.6380474366483267e-06 -1.0806487585009329e-02 0.0000000000000000e+00  7.2321439190523343e-06 -1.1186642411984835e-02 0.0000000000000000e+00  0.0000000000000000e+00 0.0000000000000000e+00 0.0000000000000000e+00  0.0000000000000000e+00 0.0000000000000000e+00 0.0000000000000000e+00  0.0000000000000000e+00 0.0000000000000000e+00 0.0000000000000000e+00  1.4279497558976006e-05 -7.8436260074114025e-03 0.0000000000000000e+00  0.0000000000000000e+00 0.0000000000000000e+00 0.0000000000000000e+00  0.0000000000000000e+00 0.0000000000000000e+00 0.0000000000000000e+00  3.4526860686717724e-06 -1.0930295377154316e-02 0.0000000000000000e+00  1.1594719083368279e-05 -1.1212112556440706e-02 0.0000000000000000e+00  0.0000000000000000e+00 0.0000000000000000e+00 0.0000000000000000e+00  2.0366358034621642e-05 -8.3436675058590083e-03 0.0000000000000000e+00  5.4025004392470761e-06 -1.0814354213452226e-02 0.0000000000000000e+00  1.8494045453406836e-05 -1.1165823961591076e-02 0.0000000000000000e+00  0.0000000000000000e+00 0.0000000000000000e+00 0.0000000000000000e+00  0.0000000000000000e+00 0.0000000000000000e+00 0.0000000000000000e+00  0.0000000000000000e+00 0.0000000000000000e+00 0.0000000000000000e+00  3.0105848303315336e-06 -8.3462029709101288e-03 0.0000000000000000e+00  2.3001218694753715e-05 -1.0813578131102952e-02 0.0000000000000000e+00  1.2204699729986269e-05 -1.1161578812980239e-02 0.0000000000000000e+00  0.0000000000000000e+00 0.0000000000000000e+00 0.0000000000000000e+00  0.0000000000000000e+00 0.0000000000000000e+00 0.0000000000000000e+00  2.4296450294782695e-05 -1.1502574505111244e-02 0.0000000000000000e+00  2.6272279833109513e-05 -1.1511010620926698e-02 0.0000000000000000e+00  2.3047758235664164e-05 -1.1511898186079417e-02 0.0000000000000000e+00  2.1639928730261747e-05 -1.1512166130237167e-02 0.0000000000000000e+00  2.4689294451043707e-05 -1.1510866535517276e-02 0.0000000000000000e+00  1.9310998309868125e-05 -1.1469930394712306e-02 0.0000000000000000e+00  3.1504955255573653e-05 -1.1477833928165612e-02 0.0000000000000000e+00  2.9109617485519922e-05 -1.1472769590550179e-02 0.0000000000000000e+00  3.1806809138725308e-05 -1.1487871714681410e-02 0.0000000000000000e+00  3.1189631231468079e-05 -1.1482385388249675e-02 0.0000000000000000e+00  2.8253932319044329e-05 -1.1484757597289253e-02 0.0000000000000000e+00  2.2052281385009519e-05 -1.1442316598808126e-02 0.0000000000000000e+00  2.3287525173812247e-05 -1.1489549401702766e-02 0.0000000000000000e+00  2.0994507756056767e-05 -1.1495425572617984e-02 0.0000000000000000e+00  2.0747948614927796e-05 -1.1499978845569149e-02 0.0000000000000000e+00  1.8784628132245641e-05 -1.1503074916659859e-02 0.0000000000000000e+00  2.2302497768944110e-05 -1.1493817037207234e-02 0.0000000000000000e+00  1.8121343473866876e-05 -1.1449279854508223e-02 0.0000000000000000e+00  2.4328316145611722e-05 -1.1599351026165692e-02 0.0000000000000000e+00  2.1332886628005923e-05 -1.1606583680083530e-02 0.0000000000000000e+00  2.2873844713149894e-05 -1.1610129655215429e-02 0.0000000000000000e+00  2.3589897782645681e-05 -1.1611733418100713e-02 0.0000000000000000e+00  2.1569112293383332e-05 -1.1607095111024117e-02 0.0000000000000000e+00  1.6389336740054472e-05 -1.1566964282643045e-02 0.0000000000000000e+00  2.0513511903863426e-05 -1.1534418915508679e-02 0.0000000000000000e+00  2.7152916552795676e-05 -1.1530811187883371e-02 0.0000000000000000e+00  2.0620559516484897e-05 -1.1547389557856209e-02 0.0000000000000000e+00  2.0558918254371492e-05 -1.1539433032037400e-02 0.0000000000000000e+00  2.4146225432164752e-05 -1.1541313709529401e-02 0.0000000000000000e+00  2.2528793190467953e-05 -1.1496482435215004e-02 0.0000000000000000e+00  2.8758070628087202e-05 -1.1613006259654836e-02 0.0000000000000000e+00  2.7272037733221257e-05 -1.1615493343637616e-02 0.0000000000000000e+00  2.8305587941615082e-05 -1.1620048327358384e-02 0.0000000000000000e+00  2.6819771322908629e-05 -1.1618447018828105e-02 0.0000000000000000e+00  2.7537705452855157e-05 -1.1617751582069256e-02 0.0000000000000000e+00  2.9673646276326643e-05 -1.1578852050320146e-02 0.0000000000000000e+00  3.0995521432921340e-05 -1.1593911388638238e-02 0.0000000000000000e+00  2.9296879433232548e-05 -1.1596988082817906e-02 0.0000000000000000e+00  2.9215823434505095e-05 -1.1600781135179877e-02 0.0000000000000000e+00  2.7649254073472387e-05 -1.1599573472573805e-02 0.0000000000000000e+00  3.1562004219562254e-05 -1.1599490056980943e-02 0.0000000000000000e+00  3.5467562029938381e-05 -1.1554130067572551e-02 0.0000000000000000e+00  2.4584815456321446e-05 -1.1581092131138771e-02 0.0000000000000000e+00  2.2714902332318615e-05 -1.1588431974660821e-02 0.0000000000000000e+00  2.3633546498242163e-05 -1.1591995396918976e-02 0.0000000000000000e+00  2.4690899474850135e-05 -1.1593712640254543e-02 0.0000000000000000e+00  2.2323102638479533e-05 -1.1587872515486364e-02 0.0000000000000000e+00  1.7756760534420852e-05 -1.1544694340047077e-02 0.0000000000000000e+00  3.0287987903807299e-05 -1.1574780446031269e-02 0.0000000000000000e+00  2.8010390139687166e-05 -1.1569322678576929e-02 0.0000000000000000e+00  3.0640567293725983e-05 -1.1584475694989384e-02 0.0000000000000000e+00  3.0103471845189937e-05 -1.1578797912034601e-02 0.0000000000000000e+00  2.6998696025566794e-05 -1.1581554351216371e-02 0.0000000000000000e+00  2.0918140745627049e-05 -1.1539030675695396e-02 0.0000000000000000e+00  3.8117198513856979e-05 -1.1563736755995774e-02 0.0000000000000000e+00  2.9562612756920300e-05 -1.1563147171907522e-02 0.0000000000000000e+00  3.4986331154111586e-05 -1.1577598481460437e-02 0.0000000000000000e+00  2.9040989377802219e-05 -1.1568936574153003e-02 0.0000000000000000e+00  3.4181091445369496e-05 -1.1575320132100815e-02 0.0000000000000000e+00  3.5977979071183927e-05 -1.1528700296867509e-02 0.0000000000000000e+00  3.3645247681121456e-05 -1.1540929553631859e-02 0.0000000000000000e+00  2.9168272393526706e-05 -1.1551411449607779e-02 0.0000000000000000e+00  3.2803020765139992e-05 -1.1553608021075129e-02 0.0000000000000000e+00  2.8819175751945874e-05 -1.1549038735788358e-02 0.0000000000000000e+00  2.9298468230746954e-05 -1.1552149851655570e-02 0.0000000000000000e+00  2.9886948995365321e-05 -1.1512434354030068e-02 0.0000000000000000e+00  1.9841772164031963e-05 -1.0841354535043634e-02 0.0000000000000000e+00  3.1470756272653492e-05 -1.1458528991944515e-02 0.0000000000000000e+00  3.9874690692144230e-05 -1.0967999558530565e-02 0.0000000000000000e+00  2.4608261972357882e-05 -7.8012786821894404e-03 0.0000000000000000e+00  0.0000000000000000e+00 0.0000000000000000e+00 0.0000000000000000e+00  2.1711666979472306e-05 -1.0828017584551843e-02 0.0000000000000000e+00  2.6894542253869658e-05 -1.1437447887555512e-02 0.0000000000000000e+00  3.1090275077690934e-05 -1.0950235308714994e-02 0.0000000000000000e+00  2.0290885531134921e-05 -7.7747345559559464e-03 0.0000000000000000e+00  0.0000000000000000e+00 0.0000000000000000e+00 0.0000000000000000e+00  2.1573489179978397e-05 -1.0860248598113081e-02 0.0000000000000000e+00  1.6661700781648126e-05 -1.1461583055301776e-02 0.0000000000000000e+00  7.8048251138149348e-06 -1.1042334045794499e-02 0.0000000000000000e+00  1.9310199065384980e-06 -7.7302670611182336e-03 0.0000000000000000e+00  0.0000000000000000e+00 0.0000000000000000e+00 0.0000000000000000e+00  3.0503659220133087e-05 -1.0809914884766980e-02 0.0000000000000000e+00  3.7299979769664200e-05 -1.1421524853985239e-02 0.0000000000000000e+00  1.1617993038121201e-05 -1.0952021031360525e-02 0.0000000000000000e+00  1.0160231518936673e-05 -7.7812070054294269e-03 0.0000000000000000e+00  0.0000000000000000e+00 0.0000000000000000e+00 0.0000000000000000e+00  2.1989639596784192e-05 -1.0862258698355727e-02 0.0000000000000000e+00  1.7636438362689652e-05 -1.1470050285103506e-02 0.0000000000000000e+00  1.0186204452878380e-05 -1.0986446782777902e-02 0.0000000000000000e+00  8.8662118679405732e-06 -7.8099432777270173e-03 0.0000000000000000e+00  0.0000000000000000e+00 0.0000000000000000e+00 0.0000000000000000e+00  2.5130581984384877e-05 -1.0868154789196529e-02 0.0000000000000000e+00  3.3159124508444989e-05 -1.1479959662047479e-02 0.0000000000000000e+00  4.0375778318194832e-05 -1.0989253958134260e-02 0.0000000000000000e+00  2.6279239359344774e-05 -7.8242700439450641e-03 0.0000000000000000e+00  0.0000000000000000e+00 0.0000000000000000e+00 0.0000000000000000e+00  2.5266343114235054e-05 -1.0901916486136471e-02 0.0000000000000000e+00  3.0578021738923966e-05 -1.1497058279788594e-02 0.0000000000000000e+00  3.5990662662483777e-05 -1.1080916225092540e-02 0.0000000000000000e+00  2.8578346923939334e-05 -7.7692374694667754e-03 0.0000000000000000e+00  0.0000000000000000e+00 0.0000000000000000e+00 0.0000000000000000e+00  1.6600296939173005e-05 -1.0893505243511993e-02 0.0000000000000000e+00  1.2525477126257455e-05 -1.1487174143014256e-02 0.0000000000000000e+00  5.0555793229763161e-06 -1.1065980571331870e-02 0.0000000000000000e+00  1.4976447256064920e-08 -7.7567417848372717e-03 0.0000000000000000e+00  0.0000000000000000e+00 0.0000000000000000e+00 0.0000000000000000e+00  2.2858612101102420e-05 -1.0762144247377620e-02 0.0000000000000000e+00  1.8030995857884974e-05 -1.1372754544478352e-02 0.0000000000000000e+00  1.0983449957223824e-05 -1.0893374778534583e-02 0.0000000000000000e+00  9.2186511777860302e-06 -7.7090677848086460e-03 0.0000000000000000e+00  0.0000000000000000e+00 0.0000000000000000e+00 0.0000000000000000e+00  2.2328776611127827e-05 -1.0760236584397691e-02 0.0000000000000000e+00  1.7738372875704511e-05 -1.1363749198488803e-02 0.0000000000000000e+00  9.1364430053359150e-06 -1.0948527285095658e-02 0.0000000000000000e+00  2.8891283549145852e-06 -7.6302440869350924e-03 0.0000000000000000e+00  0.0000000000000000e+00 0.0000000000000000e+00 0.0000000000000000e+00  2.7625042076487833e-05 -1.0781375958897312e-02 0.0000000000000000e+00  3.3767440248921151e-05 -1.1392353982449801e-02 0.0000000000000000e+00  4.1975709374014023e-06 -1.0921514497185775e-02 0.0000000000000000e+00  7.9749987769509322e-06 -7.7497600781340067e-03 0.0000000000000000e+00  0.0000000000000000e+00 0.0000000000000000e+00 0.0000000000000000e+00  2.9534039203393806e-05 -1.0877532200858710e-02 0.0000000000000000e+00  4.3344076189572233e-05 -1.1452697338573584e-02 0.0000000000000000e+00  3.0285062538011918e-05 -1.0936983502268609e-02 0.0000000000000000e+00  3.1412193020535810e-05 -1.1515794650675971e-02 0.0000000000000000e+00  2.1008569260798422e-05 -7.7820413186112762e-03 0.0000000000000000e+00  0.0000000000000000e+00 0.0000000000000000e+00 0.0000000000000000e+00  2.3917284167750103e-05 -1.0788862091942176e-02 0.0000000000000000e+00  3.3459972218003761e-05 -1.1365807153698301e-02 0.0000000000000000e+00  4.0132350638134184e-05 -1.0873259097127564e-02 0.0000000000000000e+00  3.5171141347303300e-05 -1.1427290442224227e-02 0.0000000000000000e+00  2.4462693943754314e-05 -7.7237569973537422e-03 0.0000000000000000e+00  0.0000000000000000e+00 0.0000000000000000e+00 0.0000000000000000e+00  2.7159727418658009e-05 -1.0835457609623945e-02 0.0000000000000000e+00  2.9806715195342703e-05 -1.1405285699664421e-02 0.0000000000000000e+00  5.4414862862877046e-07 -1.0932135711390683e-02 0.0000000000000000e+00  1.7126280213447852e-05 -1.1470574017995519e-02 0.0000000000000000e+00  7.3382419992744038e-06 -7.7910381210356261e-03 0.0000000000000000e+00  0.0000000000000000e+00 0.0000000000000000e+00 0.0000000000000000e+00  3.8477711276346643e-05 -1.0860790228117180e-02 0.0000000000000000e+00  5.2678755524922362e-05 -1.1417455692109882e-02 0.0000000000000000e+00  3.6978357284871987e-05 -1.0979416255698749e-02 0.0000000000000000e+00  3.6679867833473512e-05 -1.1487558067119695e-02 0.0000000000000000e+00  3.0940482287099660e-05 -7.6722777900033361e-03 0.0000000000000000e+00  0.0000000000000000e+00 0.0000000000000000e+00 0.0000000000000000e+00  2.8147030351831739e-05 -1.1000002156665363e-02 0.0000000000000000e+00  3.6275383794331013e-05 -1.1429266107096757e-02 0.0000000000000000e+00  4.3743200322633100e-05 -1.0600496402753134e-02 0.0000000000000000e+00  3.3572708204408718e-06 -1.1043708512626390e-02 0.0000000000000000e+00  7.9110561392291323e-06 -1.1471503704316686e-02 0.0000000000000000e+00  -2.6033229415867799e-05 -1.0645805807298592e-02 0.0000000000000000e+00  2.9159806523232809e-05 -1.1432766217958834e-02 0.0000000000000000e+00  -5.2228769444089795e-06 -7.3779498428549707e-03 0.0000000000000000e+00  1.4339628992494292e-05 -1.1195653025872230e-02 0.0000000000000000e+00  2.5780818906234507e-05 -1.1513379363039604e-02 0.0000000000000000e+00  9.6011797244387870e-06 -1.0739490155113517e-02 0.0000000000000000e+00  2.7406574459408971e-05 -1.1150591424615178e-02 0.0000000000000000e+00  2.8410515964655980e-05 -1.1504025416797100e-02 0.0000000000000000e+00  3.3685988495477455e-05 -1.0738157981901834e-02 0.0000000000000000e+00  3.0441953769108212e-05 -1.1532446202835538e-02 0.0000000000000000e+00  3.5652016380520906e-05 -1.1518781431998826e-02 0.0000000000000000e+00  3.1803797036860889e-05 -1.1532580459377374e-02 0.0000000000000000e+00  3.1254411809461466e-05 -1.1534364081850351e-02 0.0000000000000000e+00  2.8829916827227972e-05 -1.1522988819629558e-02 0.0000000000000000e+00  3.0272860069410383e-05 -1.1466381887813003e-02 0.0000000000000000e+00  2.7081217697184664e-05 -1.1451856922785036e-02 0.0000000000000000e+00  3.2118889657447361e-05 -1.1476062464544103e-02 0.0000000000000000e+00  3.2680635307765236e-05 -1.1476881323702354e-02 0.0000000000000000e+00  3.2915761706675686e-05 -1.1460478147847000e-02 0.0000000000000000e+00  2.3660808059109402e-05 -1.1520010655681423e-02 0.0000000000000000e+00  2.8742276601769487e-05 -1.1505479144122328e-02 0.0000000000000000e+00  2.2085934904592279e-05 -1.1519972500327417e-02 0.0000000000000000e+00  2.3067533324682114e-05 -1.1523285094175474e-02 0.0000000000000000e+00  1.9899571364574760e-05 -1.1513654674893320e-02 0.0000000000000000e+00  2.6041975578621593e-05 -1.1563002212091089e-02 0.0000000000000000e+00  2.9910179443636745e-05 -1.1551778225262047e-02 0.0000000000000000e+00  2.6308913345633753e-05 -1.1562577024557836e-02 0.0000000000000000e+00  2.6569317202721750e-05 -1.1564171952202410e-02 0.0000000000000000e+00  2.2914880475219004e-05 -1.1547237780850431e-02 0.0000000000000000e+00  2.7596254286346918e-05 -1.1096958364325881e-02 0.0000000000000000e+00  3.6340703045806306e-05 -1.1527048314426356e-02 0.0000000000000000e+00  4.4029808703806166e-05 -1.0699142503683022e-02 0.0000000000000000e+00  1.7744042711381827e-05 -1.1486090044695908e-02 0.0000000000000000e+00  1.1885240170903939e-05 -7.4201010275391820e-03 0.0000000000000000e+00  2.6021829307920761e-05 -1.1122112736148115e-02 0.0000000000000000e+00  3.5276509635036279e-05 -1.1550305942185408e-02 0.0000000000000000e+00  4.3725286685428061e-05 -1.0721922402648095e-02 0.0000000000000000e+00  2.3673921905112869e-05 -1.1218392176842097e-02 0.0000000000000000e+00  2.8958302030901923e-05 -1.1531234792503543e-02 0.0000000000000000e+00  1.7379135241007592e-05 -7.5288213986257086e-03 0.0000000000000000e+00  1.4772989623313833e-05 -1.1511005902012305e-02 0.0000000000000000e+00  1.1007651921401948e-05 -7.4413874361256797e-03 0.0000000000000000e+00  1.8731515791682891e-05 -1.1388443310449810e-02 0.0000000000000000e+00  1.2554237206923219e-05 -7.3333601552500322e-03 0.0000000000000000e+00  -5.9287421421099629e-06 -1.1092377497291984e-02 0.0000000000000000e+00  9.6800302799552218e-06 -1.1469129587861305e-02 0.0000000000000000e+00  -2.4660131644535162e-05 -1.0650340685027217e-02 0.0000000000000000e+00  2.1753854737890346e-05 -1.1560181021430770e-02 0.0000000000000000e+00  2.5608600543040975e-05 -1.1565562511028219e-02 0.0000000000000000e+00  2.2411432943564394e-05 -1.1563459748636363e-02 0.0000000000000000e+00  3.2540077782839587e-05 -1.1480329913651268e-02 0.0000000000000000e+00  3.3880075580541704e-05 -1.1481943621704745e-02 0.0000000000000000e+00  3.1858392871477218e-05 -1.1480600193172314e-02 0.0000000000000000e+00  1.8532148060412578e-05 -1.1522946690182008e-02 0.0000000000000000e+00  1.7235383188113445e-05 -1.1523006775653287e-02 0.0000000000000000e+00  2.0276729162486514e-05 -1.1524508333260875e-02 0.0000000000000000e+00  2.7552633350792256e-05 -1.1531961727845626e-02 0.0000000000000000e+00  3.0605616853153595e-05 -1.1533772171241605e-02 0.0000000000000000e+00  2.9095169141801498e-05 -1.1533809651503586e-02 0.0000000000000000e+00  1.1730020095991318e-06 -1.1144205372617360e-02 0.0000000000000000e+00  1.5128347572852811e-05 -1.1492851135428230e-02 0.0000000000000000e+00  -1.7172829432533324e-05 -1.0712370304299560e-02 0.0000000000000000e+00  2.5653170531773588e-05 -1.1469780724223704e-02 0.0000000000000000e+00  2.8700783454726116e-05 -1.1459297061908021e-02 0.0000000000000000e+00  2.4838052939393214e-05 -1.1512650216275535e-02 0.0000000000000000e+00  3.2874121507137621e-05 -1.1181396836994021e-02 0.0000000000000000e+00  2.6574315175731254e-05 -1.1418815377585578e-02 0.0000000000000000e+00  3.1008997478549735e-05 -1.1471979112380518e-02 0.0000000000000000e+00  2.3072230366762438e-05 -1.1455815947803627e-02 0.0000000000000000e+00  2.1390400096291408e-05 -1.1440788752046566e-02 0.0000000000000000e+00  2.0972653889277717e-05 -1.1497236083294320e-02 0.0