<?xml version="1.0"?>
<VTKFile type="UnstructuredGrid"  version="0.1"  >
<UnstructuredGrid>
<Piece  NumberOfPoints="2690" NumberOfCells="4864">
<Points>
<DataArray  type="Float64"  NumberOfComponents="3"  format="ascii">-5.100012165683266 22.02183307158116 0  -5.685451091191494 21.28452216861837 0  -5.098067209402937 21.52361713790276 0  -5.095695118290043 21.02191475431199 0  -5.687455875274467 21.78493297949249 0  -6.274818609645979 21.5445130033914 0  -9 21.99999999996945 0  -8.411480519722909 21.26706264749354 0  -9 21.49999999997139 0  -9 20.99999999997333 0  -8.411835675770707 21.76703744610027 0  -7.823339347741392 21.5340167597448 0  -9 32.9999999999446 0  -8.419223309153933 32.26699057894621 0  -9 32.49999999994358 0  -9 31.99999999994255 0  -8.419577657066712 32.76699776278885 0  -7.838820618301725 32.53394240266191 0  -5.15135485232233 33.0235760577122 0  -5.6487636262046 32.31969403578849 0  -5.149337470485069 32.52672207649811 0  -5.146765369404729 32.02281209033328 0  -5.650847518748437 32.82030442936099 0  -6.150253847772784 32.6136361149196 0  -5.251519940599165 54.02242949771934 0  -5.819642689565799 54.7588729221614 0  -5.817657836196491 54.25981688105107 0  -6.383422558335135 54.49392132092161 0  -5.253909262192052 54.52413330363301 0  -5.25590726931704 55.02262067496679 0  -9 54.99999999998974 0  -8.503410300825085 54.29995697388809 0  -9 54.49999999998872 0  -9 53.99999999998769 0  -8.503728122582521 54.79986060718618 0  -8.007205675383069 54.59975290407752 0  -9 39.99999999995897 0  -8.425244690732409 40.74191478660011 0  -8.424890075431353 40.24192034268206 0  -7.850119718231604 40.48377354332965 0  -9 40.49999999996 0  -9 40.99999999996102 0  -5.189036277471931 41.02079930927214 0  -5.735582069193683 40.29024382564162 0  -5.187030413445042 40.52421599846833 0  -5.184673718681657 40.02344764716877 0  -5.737587109885226 40.78989154870089 0  -6.286126493042669 40.55514685236891 0  -9 55.99999999999179 0  -8.459854402483792 56.74740782803919 0  -8.459541235815518 56.24734643103664 0  -7.91941014241829 56.49469315686819 0  -9 56.49999999999282 0  -9 56.99999999999384 0  -5.261152163334497 56.02138587204884 0  -5.804584174104691 56.76480738180824 0  -5.802642921443344 56.26471263765185 0  -6.343685884276068 56.50532600616943 0  -5.263689325633371 56.524856414556 0  -5.265683375159798 57.02270404999152 0  -7.515148260082657 43.01237254313096 0  -6.709745215715001 43.12750469410179 0  -7.289201340863912 43.35181151305754 0  -7.063433935872678 43.69126590503308 0  -6.935502390934225 42.78792849889265 0  -6.355548779203171 42.56349572377422 0  -6.70061411008606 49.02340511683359 0  -7.500240209230898 48.90695566639237 0  -6.92468714515373 48.68380345686518 0  -7.148979346741744 48.3441285540667 0  -7.275970970974416 49.24651288264604 0  -7.850984456268331 49.46978718250786 0  -6.692029366907533 46.02197653528444 0  -7.494643131506158 45.90602605468251 0  -6.916987536163413 45.68210887200109 0  -7.142145624886052 45.34235491760007 0  -7.269496865303712 46.24576160042442 0  -7.846650172574236 46.46946515992339 0  -6.58139331602312 7.022716127213055 0  -7.422495171477403 6.906616367664267 0  -6.817186091770311 6.683101758396614 0  -7.053180136312966 6.343492099150931 0  -7.18651329345858 7.24622123038472 0  -7.791321218410274 7.469711597540195 0  -7.491254667169219 30.01223419030828 0  -6.672876837005913 30.12719175511257 0  -7.261675280019215 30.35133385738384 0  -7.032283252381181 30.6903554704355 0  -6.902268944785563 29.78801806671111 0  -6.31296274712791 29.56392738406294 0  -6.573374987773572 4.021617806791936 0  -7.417682170423822 4.122276750531586 0  -6.811583688559013 4.357030208939864 0  -7.049637969225596 4.692372566069014 0  -7.17963849804104 3.786891844047791 0  -7.78617080532829 3.552305695029214 0  -6.589652450558494 10.02290308870122 0  -7.428258978008993 10.12313653232441 0  -6.826303714595753 10.35802996087209 0  -7.062790053599031 10.69315855289508 0  -7.191755416659818 9.788031826118456 0  -7.794183875339705 9.553131652099554 0  -6.597935175500392 13.02311632403227 0  -7.433267026292654 12.90693835272983 0  -6.832095095343872 12.68350953193312 0  -7.066454993768777 12.34390929820541 0  -7.198909831968336 13.2465707545626 0  -7.79958346293703 13.46996261672693 0  -6.606282788451801 16.02346905960457 0  -7.438728727674245 15.9070437398763 0  -6.839622645251916 15.68388906646284 0  -7.07316969676973 15.34425134795949 0  -7.2052012160911 16.24659678565012 0  -7.803792513856022 16.46985635655152 0  -6.614958211685389 19.0210248681547 0  -7.444793188902497 19.12166290204797 0  -6.849236313962675 19.35576800123289 0  -7.083306103783954 19.69064462098986 0  -7.210703271324697 18.7867163193928 0  -7.806798608221223 18.55234791371941 0  -6.637729474168782 27.02024170508674 0  -7.459647826863805 27.12117362746568 0  -6.869730772452542 27.35543051248214 0  -7.101555558428804 27.69065167476966 0  -7.227823055167519 26.7858264343285 0  -7.818228737594315 26.55159590471052 0  -8.284936266475707 19.10009397659121 0  -8.045948716037993 18.82618625688604 0  -8.403200972088413 18.27623536919501 0  -8.642227117151947 18.55014351593481 0  -9 17.99999999998495 0  -8.291770645637605 27.09984750869149 0  -8.055076828741326 26.82572458077812 0  -8.408923995473803 26.27577744173406 0  -8.64565422835757 26.54991949944479 0  -9 25.99999999995395 0  -8.282175370070368 15.91306261726664 0  -8.042904687988687 16.19147194561907 0  -8.402088675879234 16.73487911294319 0  -8.641320761171134 16.45649561398237 0  -9 16.99999999998883 0  -5.843807715716396 30.12064262800967 0  -6.078301901904493 29.84226267470264 0  -5.723161076210008 29.29807382365031 0  -5.488668288258835 29.57748711993756 0  -5.132326026507275 29.0218456844046 0  -8.279659792790341 12.91305220220509 0  -8.03954431979369 13.19150284604455 0  -8.399977303172919 13.73499086438873 0  -8.640057607572937 13.4565367170389 0  -9 13.99999999999401 0  -8.277334366915801 10.10078483762103 0  -8.035833972448099 9.826959090836295 0  -8.396904208611469 9.276562348977853 0  -8.638442910772957 9.550388115575105 0  -9 8.99999999999857 0  -8.272488148387664 4.100377738769876 0  -8.029396448420055 3.826359792618549 0  -8.392935677008062 3.276121219456515 0  -8.636047661304806 3.550143661230565 0  -9 2.999999999998668 0  -8.274710547531017 6.912891105623469 0  -8.032938909689586 7.191297037349953 0  -8.395845354864164 7.734862175649939 0  -8.637580745139443 7.456458861121092 0  -9 7.999999999999485 0  -8.307881641584958 45.91261894283462 0  -8.077187808952843 46.19101612974359 0  -8.423514895343031 46.73477330539383 0  -8.654171253676509 46.45637847843275 0  -9 46.99999999997333 0  -8.310457842580341 48.91300978406754 0  -8.080638691492872 49.19141126999459 0  -8.425691343355918 49.73484196675781 0  -8.655470620491464 49.45647253419296 0  -9 49.99999999997949 0  -5.893861509269672 43.12091294151323 0  -6.124619913768133 42.8422023360127 0  -5.775100389335098 42.29733977754353 0  -5.544354817941207 42.57720747325819 0  -5.193567724456163 42.02093751989339 0  -5.815690385595777 23.94332090734123 0  -6.058578884584644 24.20868764797125 0  -5.707717899954718 24.75307551638933 0  -6.301298692553153 24.47412938308644 0  -5.464980969161714 24.48874339363107 0  -5.114068283774424 25.02165089147691 0  -8.317754418683409 52.08979774476591 0  -8.083702025342669 51.82429397772284 0  -8.424535364889717 51.27948830214034 0  -7.84948525980012 51.55885267720414 0  -8.65863351237271 51.54499083708912 0  -9 50.99999999998153 0  -5.86997618981828 38.11038429999848 0  -6.106835472665097 37.84014411421991 0  -5.757416293318182 37.30063622909612 0  -6.343857376075675 37.56996619041756 0  -5.520556642051349 37.57213283624822 0  -5.169847502714338 37.01995981954804 0  -5.857757364350333 34.94311247682391 0  -6.097470529093138 35.20832134019759 0  -5.751304453482109 35.75243190420998 0  -6.337015522730855 35.47359985206239 0  -5.511728607725846 35.48841769922311 0  -5.165546079452995 36.02060120735568 0  -7.949064609779266 50.51034523535402 0  -7.899238048512501 51.03462707831834 0  -8.474701906199313 50.75511459151668 0  -6.237633039990974 36.52155073766968 0  -6.290769003259837 37.04562347916044 0  -5.703907113698357 36.77460660232625 0  -6.287290084533387 35.99742455201618 0  -5.70186768852107 36.27434259524452 0  -6.064022877013208 25.28367634157039 0  -6.182616229661103 24.87894663111916 0  -5.589286142732777 25.15666271728284 0  -8.056117214921017 25.75366718985707 0  -7.937116474915675 26.15263070275872 0  -8.528128540352137 25.87683732910661 0  -7.023708825053612 34.39184189415233 0  -6.680131444155485 34.9328518669827 0  -6.927589559562675 35.25524579413554 0  -7.271197439966478 34.71442054390663 0  -7.518487214709419 35.03695970077566 0  -7.176364490596971 52.63999700729406 0  -7.5126808266617 52.09954429046794 0  -7.270508464568834 51.77748992124343 0  -6.934215220291608 52.31801261757641 0  -6.691856584646114 51.99609002407033 0  -7.034019309935077 38.63989356095477 0  -6.689169897699442 38.10505729245442 0  -6.934010568613819 37.77838411572888 0  -7.278839296132155 38.3134178014386 0  -7.523855641652187 37.98689223929281 0  -6.997274308744788 23.39195838504922 0  -6.649060308557563 23.93312547782403 0  -6.899802420964195 24.25562016925085 0  -7.248050834653781 23.71460854437098 0  -7.498631170966013 24.03719731064091 0  -7.905937684486629 17.51024194682541 0  -7.856332675631402 18.03132796572607 0  -8.453134101526555 17.75506175338548 0  -7.854894935428713 16.99006109076523 0  -8.452803900086097 17.25515397131242 0  -7.894464919326344 8.510473550930195 0  -7.84429557919359 9.031804739079346 0  -8.44738761238291 8.755239015425145 0  -7.934456987968493 2.42469791080612 0  -7.860252491488597 2.988474355084419 0  -8.467373865112121 2.712379342634138 0  -7.842924219710379 7.990098297552284 0  -8.44707307028238 8.255229429614019 0  -7.900056551037859 49.99007920579076 0  -8.474361144501362 50.25520762121672 0  -6.169484646273333 41.61425283787974 0  -6.262575019713852 42.08897355343
[...]
<PointData  Vectors="f_27"> 
<DataArray  type="Float64"  Name="f_27"  NumberOfComponents="3" format="ascii">0.0000000000000000e+00 0.0000000000000000e+00 0.0000000000000000e+00  7.3665535545605907e-06 -8.1308374494903635e-03 0.0000000000000000e+00  0.0000000000000000e+00 0.0000000000000000e+00 0.0000000000000000e+00  0.0000000000000000e+00 0.0000000000000000e+00 0.0000000000000000e+00  2.0621774232105655e-07 -1.1401324440110111e-02 0.0000000000000000e+00  1.6009950391195642e-05 -1.1722771844409561e-02 0.0000000000000000e+00  0.0000000000000000e+00 0.0000000000000000e+00 0.0000000000000000e+00  3.4679425216249023e-05 -8.2762066601993790e-03 0.0000000000000000e+00  0.0000000000000000e+00 0.0000000000000000e+00 0.0000000000000000e+00  0.0000000000000000e+00 0.0000000000000000e+00 0.0000000000000000e+00  6.8787924827144910e-05 -1.1361757266257246e-02 0.0000000000000000e+00  5.4331831275144625e-05 -1.1767564991466858e-02 0.0000000000000000e+00  0.0000000000000000e+00 0.0000000000000000e+00 0.0000000000000000e+00  3.5533799779731266e-05 -8.0377313424268310e-03 0.0000000000000000e+00  0.0000000000000000e+00 0.0000000000000000e+00 0.0000000000000000e+00  0.0000000000000000e+00 0.0000000000000000e+00 0.0000000000000000e+00  6.9961205707326610e-05 -1.1257361809550051e-02 0.0000000000000000e+00  5.8448410734636657e-05 -1.1664266107402376e-02 0.0000000000000000e+00  0.0000000000000000e+00 0.0000000000000000e+00 0.0000000000000000e+00  1.5272385328196778e-05 -8.4528763860105272e-03 0.0000000000000000e+00  0.0000000000000000e+00 0.0000000000000000e+00 0.0000000000000000e+00  0.0000000000000000e+00 0.0000000000000000e+00 0.0000000000000000e+00  2.3422392589963441e-05 -1.1318510494338921e-02 0.0000000000000000e+00  3.2704258153018816e-05 -1.1704490813319644e-02 0.0000000000000000e+00  0.0000000000000000e+00 0.0000000000000000e+00 0.0000000000000000e+00  2.5027279505205950e-05 -8.2459161249134796e-03 0.0000000000000000e+00  5.3729881776561700e-05 -1.1063086909495324e-02 0.0000000000000000e+00  4.7070719165212890e-05 -1.1453379950824343e-02 0.0000000000000000e+00  0.0000000000000000e+00 0.0000000000000000e+00 0.0000000000000000e+00  0.0000000000000000e+00 0.0000000000000000e+00 0.0000000000000000e+00  0.0000000000000000e+00 0.0000000000000000e+00 0.0000000000000000e+00  3.4510061733997715e-05 -8.2321241292994934e-03 0.0000000000000000e+00  0.0000000000000000e+00 0.0000000000000000e+00 0.0000000000000000e+00  0.0000000000000000e+00 0.0000000000000000e+00 0.0000000000000000e+00  4.9382325417358339e-05 -1.1183196513236194e-02 0.0000000000000000e+00  4.9649061417577721e-05 -1.1493140823018754e-02 0.0000000000000000e+00  0.0000000000000000e+00 0.0000000000000000e+00 0.0000000000000000e+00  3.0819068936177361e-05 -7.9558428121454406e-03 0.0000000000000000e+00  2.6572085236373981e-05 -1.1196543905762175e-02 0.0000000000000000e+00  3.8169990685369650e-05 -1.1594321241344784e-02 0.0000000000000000e+00  0.0000000000000000e+00 0.0000000000000000e+00 0.0000000000000000e+00  0.0000000000000000e+00 0.0000000000000000e+00 0.0000000000000000e+00  0.0000000000000000e+00 0.0000000000000000e+00 0.0000000000000000e+00  2.3071564500901115e-05 -8.0970102216832030e-03 0.0000000000000000e+00  0.0000000000000000e+00 0.0000000000000000e+00 0.0000000000000000e+00  0.0000000000000000e+00 0.0000000000000000e+00 0.0000000000000000e+00  1.9879465716412612e-05 -1.1332532157921814e-02 0.0000000000000000e+00  3.1079471048134341e-05 -1.1620527256962384e-02 0.0000000000000000e+00  0.0000000000000000e+00 0.0000000000000000e+00 0.0000000000000000e+00  4.5872948910297734e-05 -8.5388940999504472e-03 0.0000000000000000e+00  3.6635375344771937e-05 -1.1102993177394624e-02 0.0000000000000000e+00  5.1384518084477989e-05 -1.1466952837559529e-02 0.0000000000000000e+00  0.0000000000000000e+00 0.0000000000000000e+00 0.0000000000000000e+00  0.0000000000000000e+00 0.0000000000000000e+00 0.0000000000000000e+00  0.0000000000000000e+00 0.0000000000000000e+00 0.0000000000000000e+00  2.2209475481864914e-05 -8.5481620458557530e-03 0.0000000000000000e+00  4.5961164517286393e-05 -1.1103679264837922e-02 0.0000000000000000e+00  3.8700820683822826e-05 -1.1461799124473761e-02 0.0000000000000000e+00  0.0000000000000000e+00 0.0000000000000000e+00 0.0000000000000000e+00  0.0000000000000000e+00 0.0000000000000000e+00 0.0000000000000000e+00  6.9340913649007982e-05 -1.1911569470760589e-02 0.0000000000000000e+00  7.7919955420881689e-05 -1.1922251325984541e-02 0.0000000000000000e+00  6.9133565908850858e-05 -1.1921261420793921e-02 0.0000000000000000e+00  6.5781138048130570e-05 -1.1920314731096761e-02 0.0000000000000000e+00  7.3458835602614161e-05 -1.1921066834616712e-02 0.0000000000000000e+00  7.1018058791876535e-05 -1.1882984264599508e-02 0.0000000000000000e+00  8.9447216822991825e-05 -1.1844400933766664e-02 0.0000000000000000e+00  8.3337050594919603e-05 -1.1843917275266378e-02 0.0000000000000000e+00  9.0339542385850212e-05 -1.1860323142438244e-02 0.0000000000000000e+00  8.7897792346666647e-05 -1.1857575329303377e-02 0.0000000000000000e+00  8.2516261529577150e-05 -1.1852827220228514e-02 0.0000000000000000e+00  7.2937826093874523e-05 -1.1807754355464457e-02 0.0000000000000000e+00  7.8376887324120535e-05 -1.1880395476952575e-02 0.0000000000000000e+00  6.8601881669471673e-05 -1.1885884643426013e-02 0.0000000000000000e+00  7.1486955227371811e-05 -1.1892284011361057e-02 0.0000000000000000e+00  6.3372282067953402e-05 -1.1897574966780866e-02 0.0000000000000000e+00  7.3889106780427542e-05 -1.1883036100086326e-02 0.0000000000000000e+00  6.6362754802617042e-05 -1.1832419144633989e-02 0.0000000000000000e+00  7.4703856253512707e-05 -1.2211878663232917e-02 0.0000000000000000e+00  6.7199078700696423e-05 -1.2222099519640933e-02 0.0000000000000000e+00  7.1338193336877460e-05 -1.2226713983730065e-02 0.0000000000000000e+00  7.0982962127638199e-05 -1.2230796524378248e-02 0.0000000000000000e+00  6.8557684075692984e-05 -1.2221345181420405e-02 0.0000000000000000e+00  6.0265898021725253e-05 -1.2177237370440734e-02 0.0000000000000000e+00  6.4585288180380647e-05 -1.2020985294658008e-02 0.0000000000000000e+00  7.7518084337726173e-05 -1.2013205902173125e-02 0.0000000000000000e+00  6.5749125870254036e-05 -1.2032470763959814e-02 0.0000000000000000e+00  6.3371519192045517e-05 -1.2022086108888394e-02 0.0000000000000000e+00  7.1554401649531423e-05 -1.2025761232440259e-02 0.0000000000000000e+00  7.1719678715043120e-05 -1.1979275572499504e-02 0.0000000000000000e+00  8.1532823466218057e-05 -1.2249539808056384e-02 0.0000000000000000e+00  7.3568126555556939e-05 -1.2243213897023606e-02 0.0000000000000000e+00  7.7415962318003959e-05 -1.2252307179749638e-02 0.0000000000000000e+00  7.4295057846949689e-05 -1.2247868285511053e-02 0.0000000000000000e+00  7.5322356885048879e-05 -1.2246974050553291e-02 0.0000000000000000e+00  7.3593601785175834e-05 -1.2201216926016573e-02 0.0000000000000000e+00  7.8571751668635487e-05 -1.2196974090269685e-02 0.0000000000000000e+00  7.2820271919766947e-05 -1.2197141696637322e-02 0.0000000000000000e+00  7.3320795666261701e-05 -1.2201510250280200e-02 0.0000000000000000e+00  7.1576731277219084e-05 -1.2198035192729450e-02 0.0000000000000000e+00  7.7762606391308238e-05 -1.2201506140041828e-02 0.0000000000000000e+00  7.9498823614529459e-05 -1.2154267913213737e-02 0.0000000000000000e+00  7.3270483387198428e-05 -1.2163085171645452e-02 0.0000000000000000e+00  6.7639239413808352e-05 -1.2174363692501805e-02 0.0000000000000000e+00  7.0670056172694940e-05 -1.2178315426427663e-02 0.0000000000000000e+00  7.0984028761224857e-05 -1.2182544991155068e-02 0.0000000000000000e+00  6.8037530130106831e-05 -1.2171869971383644e-02 0.0000000000000000e+00  6.1386212148970129e-05 -1.2124755573674194e-02 0.0000000000000000e+00  8.4316784921774628e-05 -1.2139958365839492e-02 0.0000000000000000e+00  7.7993145310655012e-05 -1.2138827067677166e-02 0.0000000000000000e+00  8.4861486257301622e-05 -1.2154730512378831e-02 0.0000000000000000e+00  8.2138405754561696e-05 -1.2151104192822889e-02 0.0000000000000000e+00  7.7154596314697125e-05 -1.2149157132433841e-02 0.0000000000000000e+00  6.7765938389027330e-05 -1.2104307518707839e-02 0.0000000000000000e+00  9.3525901832376256e-05 -1.2105763752397839e-02 0.0000000000000000e+00  7.5439269177962045e-05 -1.2111946337960327e-02 0.0000000000000000e+00  8.5579446429483416e-05 -1.2123326114293682e-02 0.0000000000000000e+00  7.1851810117730264e-05 -1.2113502900643216e-02 0.0000000000000000e+00  8.4228371307739323e-05 -1.2124428592664938e-02 0.0000000000000000e+00  8.1867217590459628e-05 -1.2081586480058616e-02 0.0000000000000000e+00  8.9417353231219503e-05 -1.2047815733771734e-02 0.0000000000000000e+00  7.5473784823523079e-05 -1.2056275456531904e-02 0.0000000000000000e+00  8.4027896016663819e-05 -1.2059308992202811e-02 0.0000000000000000e+00  7.3350168687350229e-05 -1.2052052789472105e-02 0.0000000000000000e+00  7.7927866746505109e-05 -1.2057925519576337e-02 0.0000000000000000e+00  7.3041545593683616e-05 -1.2017181392398128e-02 0.0000000000000000e+00  5.7099538925382893e-05 -1.1360438854911779e-02 0.0000000000000000e+00  7.2537877246453119e-05 -1.2009365286553650e-02 0.0000000000000000e+00  8.0543840111312471e-05 -1.1498686117157849e-02 0.0000000000000000e+00  5.1428462710166172e-05 -8.1655790661946601e-03 0.0000000000000000e+00  0.0000000000000000e+00 0.0000000000000000e+00 0.0000000000000000e+00  5.8537810992418727e-05 -1.1293087112446042e-02 0.0000000000000000e+00  6.6286515413917582e-05 -1.1936414458120539e-02 0.0000000000000000e+00  6.7973309852381215e-05 -1.1430410956967707e-02 0.0000000000000000e+00  4.5743831801270100e-05 -8.0862610732802872e-03 0.0000000000000000e+00  0.0000000000000000e+00 0.0000000000000000e+00 0.0000000000000000e+00  6.3321731853493212e-05 -1.1392631337245633e-02 0.0000000000000000e+00  6.0098861497132054e-05 -1.2024257837173884e-02 0.0000000000000000e+00  4.9548680524300405e-05 -1.1582652573070128e-02 0.0000000000000000e+00  3.0269897816222925e-05 -8.0989562726725174e-03 0.0000000000000000e+00  0.0000000000000000e+00 0.0000000000000000e+00 0.0000000000000000e+00  7.6506094321377046e-05 -1.1258761968595590e-02 0.0000000000000000e+00  1.0816843404553652e-04 -1.1895175796942454e-02 0.0000000000000000e+00  5.0577102429899483e-05 -1.1443408477694901e-02 0.0000000000000000e+00  3.6104114517321338e-05 -8.1061576001378345e-03 0.0000000000000000e+00  0.0000000000000000e+00 0.0000000000000000e+00 0.0000000000000000e+00  6.1323747005363283e-05 -1.1408768358353218e-02 0.0000000000000000e+00  5.8635854992309777e-05 -1.2046959553937715e-02 0.0000000000000000e+00  4.9744181826082040e-05 -1.1536680297814347e-02 0.0000000000000000e+00  3.6388457345664525e-05 -8.1959996557796292e-03 0.0000000000000000e+00  0.0000000000000000e+00 0.0000000000000000e+00 0.0000000000000000e+00  6.3871930156178709e-05 -1.1430332440528532e-02 0.0000000000000000e+00  7.4019671629616205e-05 -1.2075194719904312e-02 0.0000000000000000e+00  8.0855013399080074e-05 -1.1561245973259146e-02 0.0000000000000000e+00  5.4015879799161974e-05 -8.2316760409324105e-03 0.0000000000000000e+00  0.0000000000000000e+00 0.0000000000000000e+00 0.0000000000000000e+00  6.3529389456474023e-05 -1.1487008259162922e-02 0.0000000000000000e+00  7.0772957134261801e-05 -1.2113151810495932e-02 0.0000000000000000e+00  7.5514399445419174e-05 -1.1674049822508557e-02 0.0000000000000000e+00  5.5548306991971832e-05 -8.1961265944412078e-03 0.0000000000000000e+00  0.0000000000000000e+00 0.0000000000000000e+00 0.0000000000000000e+00  5.5660439849584359e-05 -1.1470264971374159e-02 0.0000000000000000e+00  5.3008363043155866e-05 -1.2093655655491014e-02 0.0000000000000000e+00  4.4408353142058611e-05 -1.1647539443318783e-02 0.0000000000000000e+00  2.6656888636454915e-05 -8.1702823893817483e-03 0.0000000000000000e+00  0.0000000000000000e+00 0.0000000000000000e+00 0.0000000000000000e+00  6.3434392741387402e-05 -1.1106418293849181e-02 0.0000000000000000e+00  6.2240831512695152e-05 -1.1749879104055075e-02 0.0000000000000000e+00  5.4487863604311844e-05 -1.1253204937634790e-02 0.0000000000000000e+00  3.8217353794782103e-05 -7.9034479560386173e-03 0.0000000000000000e+00  0.0000000000000000e+00 0.0000000000000000e+00 0.0000000000000000e+00  6.7521926884547609e-05 -1.1090337133033321e-02 0.0000000000000000e+00  6.5331203767544669e-05 -1.1725039870678060e-02 0.0000000000000000e+00  5.5149369426038836e-05 -1.1294733901991106e-02 0.0000000000000000e+00  3.4163957630834736e-05 -7.8080938082780091e-03 0.0000000000000000e+00  0.0000000000000000e+00 0.0000000000000000e+00 0.0000000000000000e+00  7.5231874429927133e-05 -1.1157643740832021e-02 0.0000000000000000e+00  1.0743757456996876e-04 -1.1797388118045224e-02 0.0000000000000000e+00  4.3993120535815518e-05 -1.1347033363957201e-02 0.0000000000000000e+00  3.5230810948950556e-05 -8.0043788913460572e-03 0.0000000000000000e+00  0.0000000000000000e+00 0.0000000000000000e+00 0.0000000000000000e+00  8.2461031257917867e-05 -1.1362768620426388e-02 0.0000000000000000e+00  1.1047553776736725e-04 -1.1971561571206331e-02 0.0000000000000000e+00  6.5320357296748359e-05 -1.1403791123508540e-02 0.0000000000000000e+00  7.9277052187916308e-05 -1.2036234006250474e-02 0.0000000000000000e+00  4.7687581188549719e-05 -8.0758523268797729e-03 0.0000000000000000e+00  0.0000000000000000e+00 0.0000000000000000e+00 0.0000000000000000e+00  6.4063846273426349e-05 -1.1104546375413509e-02 0.0000000000000000e+00  7.6199392658055112e-05 -1.1711960611821214e-02 0.0000000000000000e+00  8.1797242215584818e-05 -1.1208411383550150e-02 0.0000000000000000e+00  8.0983989837314294e-05 -1.1776778052875470e-02 0.0000000000000000e+00  5.2017835298616564e-05 -7.8972121999549439e-03 0.0000000000000000e+00  0.0000000000000000e+00 0.0000000000000000e+00 0.0000000000000000e+00  8.0555736658446568e-05 -1.1246500099015335e-02 0.0000000000000000e+00  1.0220456937973605e-04 -1.1835321945269648e-02 0.0000000000000000e+00  3.4414239591266334e-05 -1.1382217343986851e-02 0.0000000000000000e+00  6.7201474397608378e-05 -1.1906578202432197e-02 0.0000000000000000e+00  3.6778917695083240e-05 -8.0834416356849216e-03 0.0000000000000000e+00  0.0000000000000000e+00 0.0000000000000000e+00 0.0000000000000000e+00  9.2310571061900623e-05 -1.1278660312988036e-02 0.0000000000000000e+00  1.2214567681765183e-04 -1.1866389231996573e-02 0.0000000000000000e+00  7.0071090884578225e-05 -1.1390598053255858e-02 0.0000000000000000e+00  8.5206500028800318e-05 -1.1941191650113788e-02 0.0000000000000000e+00  5.6448769478798847e-05 -7.8917022148230712e-03 0.0000000000000000e+00  0.0000000000000000e+00 0.0000000000000000e+00 0.0000000000000000e+00  7.2419666277928174e-05 -1.1335016361488193e-02 0.0000000000000000e+00  8.2175668336743836e-05 -1.1783054648681141e-02 0.0000000000000000e+00  8.4155529408447659e-05 -1.0913230212418029e-02 0.0000000000000000e+00  1.5847131706460004e-05 -1.1468098884633590e-02 0.0000000000000000e+00  4.3346964298400253e-05 -1.1912813333068163e-02 0.0000000000000000e+00  -3.1459627991437801e-05 -1.1053404651132527e-02 0.0000000000000000e+00  6.3920221737569018e-05 -1.1875375869589203e-02 0.0000000000000000e+00  -2.0487393457581971e-05 -7.6356847792206023e-03 0.0000000000000000e+00  2.9224216733817352e-05 -1.1692173027623107e-02 0.0000000000000000e+00  6.1152612115176973e-05 -1.2026814054301681e-02 0.0000000000000000e+00  2.9787606067401075e-06 -1.1226347327796319e-02 0.0000000000000000e+00  6.3768498742008552e-05 -1.1638658108905053e-02 0.0000000000000000e+00  6.8103617435330208e-05 -1.2009989197906731e-02 0.0000000000000000e+00  6.8288932185574982e-05 -1.1203259972963274e-02 0.0000000000000000e+00  7.7495528966743280e-05 -1.1992659241189606e-02 0.0000000000000000e+00  9.1462337746530599e-05 -1.1977521384209209e-02 0.0000000000000000e+00  7.9192388676023532e-05 -1.1991371145630772e-02 0.0000000000000000e+00  7.8945958670862933e-05 -1.1993248266310916e-02 0.0000000000000000e+00  7.1919949426670353e-05 -1.1979687742428411e-02 0.0000000000000000e+00  7.9392498603242652e-05 -1.1804326264131195e-02 0.0000000000000000e+00  7.3342034627537576e-05 -1.1796520612124680e-02 0.0000000000000000e+00  8.1487950294381625e-05 -1.1820339381348268e-02 0.0000000000000000e+00  8.4250075825300684e-05 -1.1816602378206999e-02 0.0000000000000000e+00  8.3466574526642152e-05 -1.1799829562423651e-02 0.0000000000000000e+00  7.1054076210725489e-05 -1.1953935253003105e-02 0.0000000000000000e+00  8.5056022716401033e-05 -1.1939461438000225e-02 0.0000000000000000e+00  7.0162470302651502e-05 -1.1955481148807432e-02 0.0000000000000000e+00  7.1211814558477113e-05 -1.1959082245533824e-02 0.0000000000000000e+00  6.3497775639547211e-05 -1.1950787309673753e-02 0.0000000000000000e+00  7.1343128111087722e-05 -1.2088246523429479e-02 0.0000000000000000e+00  8.4381571173569857e-05 -1.2077112858201235e-02 0.0000000000000000e+00  7.3061700353819098e-05 -1.2087539033348626e-02 0.0000000000000000e+00  7.2766488595631389e-05 -1.2088021564238185e-02 0.0000000000000000e+00  6.4890467394236430e-05 -1.2068973361542718e-02 0.0000000000000000e+00  6.9756661940037899e-05 -1.1633767908418626e-02 0.0000000000000000e+00  8.1238151694163169e-05 -1.2084307456517280e-02 0.0000000000000000e+00  8.3972725596567803e-05 -1.1215231976561383e-02 0.0000000000000000e+00  6.1913001393501866e-05 -1.2044886334495155e-02 0.0000000000000000e+00  3.9366046534397411e-05 -7.7733359043102223e-03 0.0000000000000000e+00  6.6870707424541366e-05 -1.1704070838541527e-02 0.0000000000000000e+00  7.8808692368752061e-05 -1.2153144364270257e-02 0.0000000000000000e+00  8.3308411029574549e-05 -1.1281218386473262e-02 0.0000000000000000e+00  6.4791261604688023e-05 -1.1822109377370828e-02 0.0000000000000000e+00  7.0600301448873860e-05 -1.2151675591939724e-02 0.0000000000000000e+00  4.3331200311030440e-05 -7.9408341823491626e-03 0.0000000000000000e+00  5.6720141652066357e-05 -1.2114852427569231e-02 0.0000000000000000e+00  3.7608929481222461e-05 -7.8334991640381085e-03 0.0000000000000000e+00  6.6457215194335595e-05 -1.1745214268977679e-02 0.0000000000000000e+00  4.1882110194770196e-05 -7.5174152784778028e-03 0.0000000000000000e+00  1.1657290893066139e-05 -1.1497246896585758e-02 0.0000000000000000e+00  5.2954928177044265e-05 -1.1888702656248539e-02 0.0000000000000000e+00  -1.7419166706067709e-05 -1.1032788060215983e-02 0.0000000000000000e+00  6.3230765294356752e-05 -1.2081698728735480e-02 0.0000000000000000e+00  6.8722108172989565e-05 -1.2089251300512999e-02 0.0000000000000000e+00  6.6162510627382169e-05 -1.2085516617787520e-02 0.0000000000000000e+00  8.1533824761122713e-05 -1.1829738912793880e-02 0.0000000000000000e+00  8.2524038850398984e-05 -1.1833385024828016e-02 0.0000000000000000e+00  8.1057164300386562e-05 -1.1826232814837113e-02 0.0000000000000000e+00  6.0241061702557629e-05 -1.1962244610157827e-02 0.0000000000000000e+00  6.0655446965082616e-05 -1.1961100837635581e-02 0.0000000000000000e+00  6.4579081056587406e-05 -1.1963008023496768e-02 0.0000000000000000e+00  6.8652460187085561e-05 -1.1987177230157717e-02 0.0000000000000000e+00  7.2975978222522041e-05 -1.1989836478486669e-02 0.0000000000000000e+00  7.2806206210042850e-05 -1.1990253957822787e-02 0.0000000000000000e+00  1.8614222432679563e-05 -1.1619109986888193e-02 0.0000000000000000e+00  5.4581583477334920e-05 -1.1981276666989893e-02 0.0000000000000000e+00  -1.9944488675560962e-05 -1.1159896744800465e-02 0.0000000000000000e+00  7.0330358810672078e-05 -1.1878052943848671e-02 0.0000000000000000e+00  8.4678145156354118e-05 -1.1869647709955147e-02 0.0000000000000000e+00  7.2195338609157460e-05 -1.1925266662766641e-02 0.0000000000000000e+00  8.2350444065301372e-05 -1.1542731738851588e-02 0.0000000000000000e+00  7.7630639036151754e-05 -1.1786307482801045e-02 0.0000000000000000e+00  8.5367399678198806e-05 -1.1844991029115652e-02 0.0000000000000000e+00  6.5408126083192492e-05 -1.1846147468838521e-02 0.0000000000000000e+00  6.6688918595586054e-05 -1.1824985667267711e-02 0.0000000000000000e+00  6.5566325187962104e-05 -1.1888246754741332e-02 0.0000