<?xml version="1.0"?>
<VTKFile type="UnstructuredGrid"  version="0.1"  >
<UnstructuredGrid>
<Piece  NumberOfPoints="2690" NumberOfCells="4864">
<Points>
<DataArray  type="Float64"  NumberOfComponents="3"  format="ascii">-5.023899173516261 22.00524111067956 0  -5.622782078365991 21.26779565385861 0  -5.023419232367284 21.5056723376889 0  -5.022875063685542 21.00527830784781 0  -5.62324590273491 21.7678888002749 0  -6.222615790166329 21.52968854313153 0  -9 21.99999999996945 0  -8.400363942307303 21.26359557827127 0  -9 21.49999999997139 0  -9 20.99999999997333 0  -8.400446478579958 21.76358940995161 0  -7.800814882212231 21.52716525879953 0  -9 32.9999999999446 0  -8.402179270155797 32.26357854799576 0  -9 32.49999999994358 0  -9 31.99999999994255 0  -8.402261869934394 32.76358002805376 0  -7.804445378749326 32.52714784225087 0  -5.035951306525998 33.00566997885092 0  -5.550339384143701 32.30196868834892 0  -5.03544696337091 32.50642105602998 0  -5.034882195057817 32.00549110100396 0  -5.550816484261919 32.80211273177304 0  -6.065705206689055 32.59774362784486 0  -5.05911366966757 54.00542240314093 0  -5.653966358434295 54.74266632215257 0  -5.653510581561713 54.2428909616801 0  -6.247859855131434 54.47956940113903 0  -5.059631229756939 54.5058083291864 0  -5.060123268013684 55.0054750214317 0  -9 54.99999999998974 0  -8.477799648436322 54.29704021379469 0  -9 54.49999999998872 0  -9 53.99999999998769 0  -8.477870947089093 54.79701828224918 0  -7.955684991350146 54.59404350694523 0  -9 39.99999999995897 0  -8.403581417979908 40.738562110544 0  -8.403498834792993 40.23856314129095 0  -7.807076332682768 40.47711095999699 0  -9 40.49999999996 0  -9 40.99999999996102 0  -5.044732692076445 41.00502833891642 0  -5.614068807077278 40.27322627474845 0  -5.044234061154638 40.50583635637503 0  -5.043708254495528 40.00566298490933 0  -5.614534038018537 40.77314070899449 0  -6.184372970747188 40.54033792412798 0  -9 55.99999999999179 0  -8.430654624208817 56.74431030952162 0  -8.430583957121858 56.24429657460369 0  -7.861241978509675 56.48859255066029 0  -9 56.49999999999282 0  -9 56.99999999999384 0  -5.061304300154505 56.00518548539192 0  -5.63137487476056 56.74851871435666 0  -5.630921191825581 56.24849724246823 0  -6.200475358806822 56.49116438186189 0  -5.061854390820672 56.50598177983878 0  -5.062344323572549 57.00549025702558 0  -7.455842638917675 43.00296617906534 0  -6.617990009334471 43.11280254481643 0  -7.220303941375705 43.34080609864456 0  -6.984809003644679 43.67865051355237 0  -6.853486114264909 42.77493054682419 0  -6.251052575163996 42.54689522187726 0  -6.595117573678 49.00558965731739 0  -7.431603484025239 48.89544071733354 0  -6.830224506181621 48.6677100100797 0  -7.065377356430468 48.32981415177924 0  -7.196453736341436 49.2333089122836 0  -7.797712704733359 49.46106832590704 0  -6.593106858301336 46.00525231975722 0  -7.430293406056629 45.89522399730065 0  -6.82841370876658 45.66731302025225 0  -7.06376558339903 45.32940072832518 0  -7.194944854981308 46.23313279514805 0  -7.79670630225012 46.46099336484346 0  -6.567112251774891 7.005446603355929 0  -7.413341697340068 6.895375656864195 0  -6.804964301714707 6.667563757422262 0  -7.042861359729963 6.329682312304793 0  -7.175448000096981 7.233256550935421 0  -7.783707666846201 7.461062150871281 0  -7.450272727879735 30.00293282296724 0  -6.60939654910248 30.11272908771663 0  -7.213884606222575 30.34069324786292 0  -6.977540753754925 30.67843594227939 0  -6.845742551654496 29.77495138779534 0  -6.241134685538082 29.54699816772189 0  -6.565164922141809 4.005187566144275 0  -7.412172844180992 4.111554998803219 0  -6.803604055571996 4.342062965076721 0  -7.042001395960421 4.678921021360098 0  -7.173778231594766 3.774685999486913 0  -7.782457103508858 3.544218952785839 0  -6.569094530292678 10.00549523151404 0  -7.414726166175191 10.11176060083782 0  -6.807153741814906 10.3423017794747 0  -7.045170197909887 10.67910839224423 0  -7.176706697642861 9.774959007145887 0  -7.784395207302191 9.544416764810125 0  -6.571081277367094 13.00554123682842 0  -7.415928214367222 12.89545194262829 0  -6.808542974377001 12.66766018707233 0  -7.046049416147259 12.32978102287339 0  -7.178424121345527 13.23333939101853 0  -7.785691742651834 13.46112162242848 0  -6.573075150456033 16.00562607510411 0  -7.417229042216542 15.89547639339805 0  -6.810341014991124 15.66775113987166 0  -7.047652194999467 15.32986270664089 0  -7.179920904286421 16.23334467412717 0  -7.786690293264833 16.46109504769237 0  -6.575084217123875 19.00503758659742 0  -7.418634234928972 19.11140427514086 0  -6.812563680410712 19.34175513554247 0  -7.049997613093598 19.67850429777623 0  -7.181197106661956 18.77463919258748 0  -7.787387718526874 18.54422605789263 0  -6.58041917955287 27.00484874372282 0  -7.422113298572103 27.11128574680897 0  -6.817373703162001 27.34167211707443 0  -7.054284393010551 27.67850298287021 0  -7.18520015794845 26.77442527374867 0  -7.790057284235493 26.54404579256821 0  -8.272921594413733 19.09538517749449 0  -8.030173252504408 18.81979732824528 0  -8.393648374238158 18.27212764577486 0  -8.636405645117192 18.54771548206341 0  -9 17.99999999998495 0  -8.274521401496033 27.09532558794901 0  -8.032307717730616 26.81968632908506 0  -8.394983590010174 26.27201811643208 0  -8.637206089508895 26.54766183592852 0  -9 25.99999999995395 0  -8.272281360605186 15.90776818565385 0  -8.029467341576755 16.18443459798411 0  -8.393390311183854 16.73053558472264 0  -8.636195416952528 16.45387542476504 0  -9 16.99999999998883 0  -5.757683451064579 30.10030737304623 0  -5.999389242541814 29.82364580137158 0  -5.636407047681073 29.27734544254714 0  -5.394687694818256 29.5542527906515 0  -5.031529906283047 29.00523185233458 0  -8.271683094446161 12.9077663186844 0  -8.028669045969032 13.18444286515271 0  -8.392890695787901 13.73056309095123 0  -8.635895970614818 13.45388569853877 0  -9 13.99999999999401 0  -8.271124800964573 10.09555206820672 0  -8.027778208731597 9.819984641100508 0  -8.392152801178014 9.272207504047508 0  -8.635508266092273 9.547774985757327 0  -9 8.99999999999857 0  -8.269954630982264 4.095454775122406 0  -8.026222529499133 3.819841258166169 0  -8.391192146410893 3.272101856376062 0  -8.634928924668433 3.547716491200372 0  -9 2.999999999998668 0  -8.270494315398686 6.907728140154391 0  -8.027082718971942 7.184394099896433 0  -8.391898459981512 7.730532655619016 0  -8.635301141582795 7.453867269665698 0  -9 7.999999999999485 0  -8.278288130437046 45.90765827703665 0  -8.037478773036366 46.18431977731774 0  -8.398398305692297 46.73050610273288 0  -8.639198699812603 46.45384513501546 0  -9 46.99999999997333 0  -8.278890386663297 48.90774877745413 0  -8.038282890406583 49.18441145248823 0  -8.398901798744546 49.73052186583861 0  -8.639500375839122 49.45386680982443 0  -9 49.99999999997949 0  -5.769343228997578 43.10036991834764 0  -6.010177749914756 42.82362963081665 0  -5.648498722652282 42.27716903632864 0  -5.407651754095384 42.55418333852439 0  -5.045791302384845 42.00502175859737 0  -5.747448738841984 23.92279104504525 0  -5.994814201952353 24.18996207059248 0  -5.634649533534898 24.73242479603775 0  -6.242140726767312 24.45714998084179 0  -5.387306601313679 24.46550230761729 0  -5.02724781829 25.00521712600155 0  -8.28420722694624 52.08514163501017 0  -8.038912367347287 51.81793932310433 0  -8.396744030093396 51.27539017231297 0  -7.793580760637163 51.55075173257842 0  -8.642049294963741 51.54259215805432 0  -9 50.99999999998153 0  -5.760149308829424 38.09007137591048 0  -6.006103020193273 37.82173362918046 0  -5.646275318130819 37.28044212964426 0  -6.2520955213403 37.55341576078647 0  -5.400306672078753 37.54907549691999 0  -5.040290256370517 37.00478831572234 0  -5.757307918643008 34.92273950603711 0  -6.003926090858342 35.18987328640127 0  -5.644858368522303 35.73227141911995 0  -6.250505381241378 35.45702351479204 0  -5.398259399086362 35.46542246981874 0  -5.03930591924932 36.00498773609133 0  -7.899181001600052 50.50260540076432 0  -7.846373096735737 51.026685124568 0  -8.4496288744562 50.75128893452383 0  -6.14507940553794 36.50517658034828 0  -6.198593425887226 37.02926336655255 0  -5.592688057824492 36.7559121421482 0  -6.19778602840529 35.98106740072835 0  -5.592222961678526 36.25585887204261 0  -5.997491985591737 25.26565179465697 0  -6.119804469595149 24.86141282843293 0  -5.512381596087868 25.13639072257666 0  -8.034315215857108 25.74769718865209 0  -7.912172849035021 26.14587133032266 0  -8.517174411480463 25.87384942952015 0  -6.96161783112884 34.37972217327791 0  -6.606007583391285 34.91840162867924 0  -6.860714144694823 35.24243575258149 0  -7.216330600178271 34.70379890597155 0  -7.470997227494649 35.02786643404054 0  -7.085605813160757 52.62790656720592 0  -7.439539625139995 52.0893567415842 0  -7.186071365768691 51.76540355316411 0  -6.832143189191208 52.30396891530254 0  -6.578634204387281 51.98004651998694 0  -6.964017662377948 38.62788461842182 0  -6.608110367536466 38.09068015833024 0  -6.862207773506724 37.7656234123522 0  -7.218109052515814 38.30287297526338 0  -7.472246474283207 37.97785050415774 0  -6.955421651675473 23.37975062712697 0  -6.598727619714511 23.91846784082306 0  -6.854206724146214 24.24252536754662 0  -7.210907209956542 23.70384438391565 0  -7.466346864500784 24.02792346078301 0  -7.889229288574519 17.50245414687132 0  -7.838300932763081 18.02334786753234 0  -8.444652968683057 17.75121276455772 0  -7.837967059704221 16.98177746070397 0  -8.444576337063404 17.2512349516618 0  -7.886493952248123 8.502512027237147 0  -7.835437359567361 9.023464885394713 0  -8.443284669614403 8.751256586048585 0  -7.932030342168758 2.417778758900013 0  -7.857228209066707 2.980992191176031 0  -8.466051011651405 2.708896796671448 0  -7.835108036240901 7.981788465762738 0  -8.443209121012824 8.251254242543183 0  -7.848454318034483 49.98183996336847 0  -8.449551883062997 50.25131069370368 0  -6.060353305145652 41.59818368722274 0  -6.155714507119616 42.0725612
[...]
<PointData  Vectors="f_27"> 
<DataArray  type="Float64"  Name="f_27"  NumberOfComponents="3" format="ascii">0.0000000000000000e+00 0.0000000000000000e+00 0.0000000000000000e+00  2.1669759237269929e-06 -7.7144501527706289e-03 0.0000000000000000e+00  0.0000000000000000e+00 0.0000000000000000e+00 0.0000000000000000e+00  0.0000000000000000e+00 0.0000000000000000e+00 0.0000000000000000e+00  -1.3219285786883724e-05 -1.0792757474592797e-02 0.0000000000000000e+00  -3.3377090307061682e-07 -1.1106715183897420e-02 0.0000000000000000e+00  0.0000000000000000e+00 0.0000000000000000e+00 0.0000000000000000e+00  9.8271426623642804e-06 -7.8543531776991103e-03 0.0000000000000000e+00  0.0000000000000000e+00 0.0000000000000000e+00 0.0000000000000000e+00  0.0000000000000000e+00 0.0000000000000000e+00 0.0000000000000000e+00  3.3496083073943536e-05 -1.0771940069648120e-02 0.0000000000000000e+00  2.0386812644340439e-05 -1.1153239131138313e-02 0.0000000000000000e+00  0.0000000000000000e+00 0.0000000000000000e+00 0.0000000000000000e+00  8.9955614833413560e-06 -7.6917336326121372e-03 0.0000000000000000e+00  0.0000000000000000e+00 0.0000000000000000e+00 0.0000000000000000e+00  0.0000000000000000e+00 0.0000000000000000e+00 0.0000000000000000e+00  3.2363829630024078e-05 -1.0745904441782188e-02 0.0000000000000000e+00  1.9789653738916872e-05 -1.1127899998528264e-02 0.0000000000000000e+00  0.0000000000000000e+00 0.0000000000000000e+00 0.0000000000000000e+00  1.9871990823043441e-06 -8.0765608667162127e-03 0.0000000000000000e+00  0.0000000000000000e+00 0.0000000000000000e+00 0.0000000000000000e+00  0.0000000000000000e+00 0.0000000000000000e+00 0.0000000000000000e+00  -4.6581066233288888e-06 -1.0790341642439652e-02 0.0000000000000000e+00  3.6443999407932591e-06 -1.1156339423363859e-02 0.0000000000000000e+00  0.0000000000000000e+00 0.0000000000000000e+00 0.0000000000000000e+00  8.7010304145924519e-06 -8.0183167605063343e-03 0.0000000000000000e+00  3.3117164861970600e-05 -1.0729894107615743e-02 0.0000000000000000e+00  1.8688669297425192e-05 -1.1094028035771794e-02 0.0000000000000000e+00  0.0000000000000000e+00 0.0000000000000000e+00 0.0000000000000000e+00  0.0000000000000000e+00 0.0000000000000000e+00 0.0000000000000000e+00  0.0000000000000000e+00 0.0000000000000000e+00 0.0000000000000000e+00  5.5817925150734569e-06 -8.0057183200919133e-03 0.0000000000000000e+00  0.0000000000000000e+00 0.0000000000000000e+00 0.0000000000000000e+00  0.0000000000000000e+00 0.0000000000000000e+00 0.0000000000000000e+00  1.2207191746487136e-05 -1.0825381131481739e-02 0.0000000000000000e+00  1.0934133880462483e-05 -1.1119187808105557e-02 0.0000000000000000e+00  0.0000000000000000e+00 0.0000000000000000e+00 0.0000000000000000e+00  5.1239410626833322e-06 -7.6607931434800273e-03 0.0000000000000000e+00  -1.1457671315125224e-05 -1.0734914752298113e-02 0.0000000000000000e+00  6.6295307790438542e-07 -1.1110912649994559e-02 0.0000000000000000e+00  0.0000000000000000e+00 0.0000000000000000e+00 0.0000000000000000e+00  0.0000000000000000e+00 0.0000000000000000e+00 0.0000000000000000e+00  0.0000000000000000e+00 0.0000000000000000e+00 0.0000000000000000e+00  1.2556001871586876e-05 -7.8025519405621338e-03 0.0000000000000000e+00  0.0000000000000000e+00 0.0000000000000000e+00 0.0000000000000000e+00  0.0000000000000000e+00 0.0000000000000000e+00 0.0000000000000000e+00  9.8801730348348652e-08 -1.0856159817371397e-02 0.0000000000000000e+00  7.6495813612229840e-06 -1.1136376238153915e-02 0.0000000000000000e+00  0.0000000000000000e+00 0.0000000000000000e+00 0.0000000000000000e+00  1.5011758878641744e-05 -8.3118812886309040e-03 0.0000000000000000e+00  -1.2571117944905282e-06 -1.0761577571715190e-02 0.0000000000000000e+00  1.1563123582651490e-05 -1.1109990785016361e-02 0.0000000000000000e+00  0.0000000000000000e+00 0.0000000000000000e+00 0.0000000000000000e+00  0.0000000000000000e+00 0.0000000000000000e+00 0.0000000000000000e+00  0.0000000000000000e+00 0.0000000000000000e+00 0.0000000000000000e+00  -1.1248350157478101e-06 -8.3131231965792862e-03 0.0000000000000000e+00  1.8328580350632881e-05 -1.0760846943719760e-02 0.0000000000000000e+00  6.6476941466877302e-06 -1.1106149358610368e-02 0.0000000000000000e+00  0.0000000000000000e+00 0.0000000000000000e+00 0.0000000000000000e+00  0.0000000000000000e+00 0.0000000000000000e+00 0.0000000000000000e+00  1.4689835725249947e-05 -1.1425619464524313e-02 0.0000000000000000e+00  1.5133719240358886e-05 -1.1433333366560819e-02 0.0000000000000000e+00  1.3160308247547244e-05 -1.1434733514403586e-02 0.0000000000000000e+00  1.2175411561087479e-05 -1.1435172460832466e-02 0.0000000000000000e+00  1.4269026390620102e-05 -1.1433680470987374e-02 0.0000000000000000e+00  8.2587299637137707e-06 -1.1392084329538168e-02 0.0000000000000000e+00  1.9258212768332552e-05 -1.1409129412210742e-02 0.0000000000000000e+00  1.7643819450836235e-05 -1.1403100186034892e-02 0.0000000000000000e+00  1.9463744656023242e-05 -1.1418002328757323e-02 0.0000000000000000e+00  1.9157631652619146e-05 -1.1412019232816963e-02 0.0000000000000000e+00  1.6739207068494462e-05 -1.1415633257225910e-02 0.0000000000000000e+00  1.1243176547776949e-05 -1.1373744109719131e-02 0.0000000000000000e+00  1.1555565949466167e-05 -1.1416111337767518e-02 0.0000000000000000e+00  1.0944752590120952e-05 -1.1422175645316857e-02 0.0000000000000000e+00  1.0069893606415318e-05 -1.1426346365374790e-02 0.0000000000000000e+00  9.4406970983906723e-06 -1.1429041929503777e-02 0.0000000000000000e+00  1.1285420573900751e-05 -1.1420735325099182e-02 0.0000000000000000e+00  7.8304993871139821e-06 -1.1377570758636128e-02 0.0000000000000000e+00  1.3357607638328000e-05 -1.1481792533585711e-02 0.0000000000000000e+00  1.1303877780979625e-05 -1.1488375682040345e-02 0.0000000000000000e+00  1.2385732284532114e-05 -1.1491721157839902e-02 0.0000000000000000e+00  1.3278893997858216e-05 -1.1492786624304651e-02 0.0000000000000000e+00  1.1221256438570069e-05 -1.1489197582568304e-02 0.0000000000000000e+00  6.6672414976196575e-06 -1.1449946205798166e-02 0.0000000000000000e+00  1.0986534263551141e-05 -1.1442541826267225e-02 0.0000000000000000e+00  1.6208949837044027e-05 -1.1439768913948411e-02 0.0000000000000000e+00  1.0814068794190403e-05 -1.1455760074232990e-02 0.0000000000000000e+00  1.1247561171823468e-05 -1.1448321167176168e-02 0.0000000000000000e+00  1.3925055055075812e-05 -1.1449955770447212e-02 0.0000000000000000e+00  1.1970137903246550e-05 -1.1405538561501685e-02 0.0000000000000000e+00  1.7006387639011794e-05 -1.1490156025018952e-02 0.0000000000000000e+00  1.6922695109739098e-05 -1.1494546567543368e-02 0.0000000000000000e+00  1.7263521652392202e-05 -1.1498175692409497e-02 0.0000000000000000e+00  1.6187201593798488e-05 -1.1497199586202307e-02 0.0000000000000000e+00  1.6926752880202318e-05 -1.1496470591183392e-02 0.0000000000000000e+00  1.9948642702284367e-05 -1.1459071320934365e-02 0.0000000000000000e+00  2.0458895998979353e-05 -1.1478384424939651e-02 0.0000000000000000e+00  1.9635723995450750e-05 -1.1482114063219889e-02 0.0000000000000000e+00  1.9337386744306073e-05 -1.1485799296245809e-02 0.0000000000000000e+00  1.7856977419278177e-05 -1.1485086688346448e-02 0.0000000000000000e+00  2.1416285278550989e-05 -1.1484228745459412e-02 0.0000000000000000e+00  2.5829234043697149e-05 -1.1439320841377531e-02 0.0000000000000000e+00  1.4021943477611599e-05 -1.1470088493892664e-02 0.0000000000000000e+00  1.2942252060085126e-05 -1.1476618942334421e-02 0.0000000000000000e+00  1.3513628420532441e-05 -1.1480105347849790e-02 0.0000000000000000e+00  1.4683583680862066e-05 -1.1481298903078916e-02 0.0000000000000000e+00  1.2271693376681261e-05 -1.1476492899437994e-02 0.0000000000000000e+00  8.1146568933190153e-06 -1.1434164243025301e-02 0.0000000000000000e+00  1.8606656579879303e-05 -1.1467340358439019e-02 0.0000000000000000e+00  1.7131602955308748e-05 -1.1460946853737898e-02 0.0000000000000000e+00  1.8930480753660250e-05 -1.1475982244428130e-02 0.0000000000000000e+00  1.8758870781291338e-05 -1.1469882304521254e-02 0.0000000000000000e+00  1.6037691887932000e-05 -1.1473599134268722e-02 0.0000000000000000e+00  1.0621673618699937e-05 -1.1431560854633399e-02 0.0000000000000000e+00  2.6239092721178487e-05 -1.1461039095836126e-02 0.0000000000000000e+00  1.9677792040774768e-05 -1.1458896346827865e-02 0.0000000000000000e+00  2.4108409978868719e-05 -1.1474019471011948e-02 0.0000000000000000e+00  1.9775148739809189e-05 -1.1465611185116917e-02 0.0000000000000000e+00  2.3442715523062282e-05 -1.1471088388274720e-02 0.0000000000000000e+00  2.6128872235590749e-05 -1.1423678656239812e-02 0.0000000000000000e+00  2.1494927236203361e-05 -1.1445025723726748e-02 0.0000000000000000e+00  1.9136695321676305e-05 -1.1455855083561214e-02 0.0000000000000000e+00  2.1667581602033465e-05 -1.1457871637419017e-02 0.0000000000000000e+00  1.9226577105740134e-05 -1.1453859369724031e-02 0.0000000000000000e+00  1.8746739666967269e-05 -1.1456482660955315e-02 0.0000000000000000e+00  2.0568586119209208e-05 -1.1416999667680732e-02 0.0000000000000000e+00  1.1761910185429719e-05 -1.0745014688897677e-02 0.0000000000000000e+00  2.2639731581834064e-05 -1.1354189767151628e-02 0.0000000000000000e+00  3.1180162782707699e-05 -1.0867430107847333e-02 0.0000000000000000e+00  1.8871645508424974e-05 -7.7410708678376473e-03 0.0000000000000000e+00  0.0000000000000000e+00 0.0000000000000000e+00 0.0000000000000000e+00  1.3749643927909756e-05 -1.0742585089529683e-02 0.0000000000000000e+00  1.8403454191964346e-05 -1.1343573845576289e-02 0.0000000000000000e+00  2.3184587829465524e-05 -1.0859618736200212e-02 0.0000000000000000e+00  1.4831370248360377e-05 -7.7255449977588009e-03 0.0000000000000000e+00  0.0000000000000000e+00 0.0000000000000000e+00 0.0000000000000000e+00  1.2423076976160654e-05 -1.0761304300085239e-02 0.0000000000000000e+00  7.0898330008910242e-06 -1.1355006881405231e-02 0.0000000000000000e+00  -1.4911687974498154e-06 -1.0939870699689184e-02 0.0000000000000000e+00  -4.4090208305802294e-06 -7.6695517113923141e-03 0.0000000000000000e+00  0.0000000000000000e+00 0.0000000000000000e+00 0.0000000000000000e+00  2.0387312712542221e-05 -1.0728195968066484e-02 0.0000000000000000e+00  2.1894534359380065e-05 -1.1332780403013302e-02 0.0000000000000000e+00  3.2862589426574243e-06 -1.0858800232062994e-02 0.0000000000000000e+00  4.4053412281471890e-06 -7.7286787976179562e-03 0.0000000000000000e+00  0.0000000000000000e+00 0.0000000000000000e+00 0.0000000000000000e+00  1.3367752159228894e-05 -1.0760418792166585e-02 0.0000000000000000e+00  8.5849388216745752e-06 -1.1360527453835648e-02 0.0000000000000000e+00  1.3763287556824952e-06 -1.0881817376880234e-02 0.0000000000000000e+00  2.7615446478395452e-06 -7.7454575546427526e-03 0.0000000000000000e+00  0.0000000000000000e+00 0.0000000000000000e+00 0.0000000000000000e+00  1.6578429227006842e-05 -1.0762955404639131e-02 0.0000000000000000e+00  2.4193528985693167e-05 -1.1366504648108558e-02 0.0000000000000000e+00  3.1586931840036440e-05 -1.0880169405065157e-02 0.0000000000000000e+00  2.0249488285378929e-05 -7.7551627825032197e-03 0.0000000000000000e+00  0.0000000000000000e+00 0.0000000000000000e+00 0.0000000000000000e+00  1.6759523298119315e-05 -1.0791630481235669e-02 0.0000000000000000e+00  2.1668560733307307e-05 -1.1379010772068746e-02 0.0000000000000000e+00  2.7346608716876637e-05 -1.0967131123851092e-02 0.0000000000000000e+00  2.2717099693688451e-05 -7.6961570122522317e-03 0.0000000000000000e+00  0.0000000000000000e+00 0.0000000000000000e+00 0.0000000000000000e+00  7.9520321907948188e-06 -1.0785107170663938e-02 0.0000000000000000e+00  3.5145954175700565e-06 -1.1371326552458604e-02 0.0000000000000000e+00  -3.8124709288005422e-06 -1.0954846969878187e-02 0.0000000000000000e+00  -6.0117475037117978e-06 -7.6865757074643460e-03 0.0000000000000000e+00  0.0000000000000000e+00 0.0000000000000000e+00 0.0000000000000000e+00  1.4309500848266912e-05 -1.0700690724641906e-02 0.0000000000000000e+00  8.6567948377196931e-06 -1.1302745866324437e-02 0.0000000000000000e+00  1.6936169228415439e-06 -1.0826346908083156e-02 0.0000000000000000e+00  3.0115547677042681e-06 -7.6839393936791039e-03 0.0000000000000000e+00  0.0000000000000000e+00 0.0000000000000000e+00 0.0000000000000000e+00  1.2770426609050982e-05 -1.0701190263921813e-02 0.0000000000000000e+00  7.6431148923698484e-06 -1.1296479379592028e-02 0.0000000000000000e+00  -7.2254157040128513e-07 -1.0883860575392611e-02 0.0000000000000000e+00  -3.8766132367422698e-06 -7.6084497576000016e-03 0.0000000000000000e+00  0.0000000000000000e+00 0.0000000000000000e+00 0.0000000000000000e+00  1.7038962634331865e-05 -1.0713271665456799e-02 0.0000000000000000e+00  1.7694084228573938e-05 -1.1316384968393389e-02 0.0000000000000000e+00  -4.3164493683186091e-06 -1.0840532922834089e-02 0.0000000000000000e+00  1.7408123860925529e-06 -7.7108074030727679e-03 0.0000000000000000e+00  0.0000000000000000e+00 0.0000000000000000e+00 0.0000000000000000e+00  1.8011590946994661e-05 -1.0788243457076012e-02 0.0000000000000000e+00  2.8619780102180402e-05 -1.1354420805358319e-02 0.0000000000000000e+00  2.2615497483724974e-05 -1.0849845371116154e-02 0.0000000000000000e+00  2.0953229316831333e-05 -1.1417039118190867e-02 0.0000000000000000e+00  1.5066618266040484e-05 -7.7371947024195819e-03 0.0000000000000000e+00  0.0000000000000000e+00 0.0000000000000000e+00 0.0000000000000000e+00  1.5515075261447634e-05 -1.0731940047565027e-02 0.0000000000000000e+00  2.4588674725209632e-05 -1.1300980827066437e-02 0.0000000000000000e+00  3.1538984666374461e-05 -1.0810523237042912e-02 0.0000000000000000e+00  2.5609937052800678e-05 -1.1361599714403491e-02 0.0000000000000000e+00  1.8753875517091370e-05 -7.7020940697428153e-03 0.0000000000000000e+00  0.0000000000000000e+00 0.0000000000000000e+00 0.0000000000000000e+00  1.5333631917022538e-05 -1.0760760618205644e-02 0.0000000000000000e+00  1.4059637136647952e-05 -1.1324953921974463e-02 0.0000000000000000e+00  -6.6449715586529492e-06 -1.0847036125538032e-02 0.0000000000000000e+00  6.4228559561514951e-06 -1.1388751196959354e-02 0.0000000000000000e+00  6.9077510068290677e-07 -7.7444404737519890e-03 0.0000000000000000e+00  0.0000000000000000e+00 0.0000000000000000e+00 0.0000000000000000e+00  2.6747180071879205e-05 -1.0784990467393524e-02 0.0000000000000000e+00  3.7465496241731194e-05 -1.1333155003248345e-02 0.0000000000000000e+00  2.9896364793296952e-05 -1.0903394159192009e-02 0.0000000000000000e+00  2.6171220971862448e-05 -1.1402002621345053e-02 0.0000000000000000e+00  2.5225545792959459e-05 -7.6434321273102877e-03 0.0000000000000000e+00  0.0000000000000000e+00 0.0000000000000000e+00 0.0000000000000000e+00  1.8819157815414397e-05 -1.0938627149571525e-02 0.0000000000000000e+00  2.6699243445001025e-05 -1.1362870330623356e-02 0.0000000000000000e+00  3.5484512383952183e-05 -1.0544752307479061e-02 0.0000000000000000e+00  9.2454217262402684e-07 -1.0965662165920615e-02 0.0000000000000000e+00  5.4832355875005055e-07 -1.1388804934366722e-02 0.0000000000000000e+00  -2.4651137403612046e-05 -1.0572866436528642e-02 0.0000000000000000e+00  2.1698817119232582e-05 -1.1349855076862618e-02 0.0000000000000000e+00  -1.6045885595408237e-06 -7.3377162051751037e-03 0.0000000000000000e+00  1.1108421704328656e-05 -1.1103020347475607e-02 0.0000000000000000e+00  1.8015412588706811e-05 -1.1416156723858940e-02 0.0000000000000000e+00  1.1327800338430249e-05 -1.0650899010147510e-02 0.0000000000000000e+00  1.9553565467897628e-05 -1.1059591249045878e-02 0.0000000000000000e+00  1.9857037968035566e-05 -1.1408523459486303e-02 0.0000000000000000e+00  2.6350182920176056e-05 -1.0653208941109743e-02 0.0000000000000000e+00  2.0352292926299815e-05 -1.1445708398953819e-02 0.0000000000000000e+00  2.3596503241094686e-05 -1.1432232913952560e-02 0.0000000000000000e+00  2.1598814886872246e-05 -1.1445943903052862e-02 0.0000000000000000e+00  2.1018195482723695e-05 -1.1447802104604662e-02 0.0000000000000000e+00  1.9591521295920316e-05 -1.1436875184357619e-02 0.0000000000000000e+00  1.9882280826205383e-05 -1.1402980463747981e-02 0.0000000000000000e+00  1.7348828759619797e-05 -1.1386950576835702e-02 0.0000000000000000e+00  2.1729190357582390e-05 -1.1411476826074345e-02 0.0000000000000000e+00  2.1740259201963924e-05 -1.1413259052260325e-02 0.0000000000000000e+00  2.2272011832741411e-05 -1.1397161820954117e-02 0.0000000000000000e+00  1.3427683421450866e-05 -1.1438282625826761e-02 0.0000000000000000e+00  1.6515381026956819e-05 -1.1423806981666573e-02 0.0000000000000000e+00  1.1742449938831605e-05 -1.1438087396134456e-02 0.0000000000000000e+00  1.2694614325250689e-05 -1.1441234636197326e-02 0.0000000000000000e+00  1.0536612457041244e-05 -1.1431376971027129e-02 0.0000000000000000e+00  1.6245651578828830e-05 -1.1463383949855370e-02 0.0000000000000000e+00  1.8086697914216778e-05 -1.1452012131844875e-02 0.0000000000000000e+00  1.6144919248461672e-05 -1.1462897944108930e-02 0.0000000000000000e+00  1.6570193594748433e-05 -1.1464789726814341e-02 0.0000000000000000e+00  1.3804028679508951e-05 -1.1448333972131977e-02 0.0000000000000000e+00  1.8398270450085686e-05 -1.0996218930390562e-02 0.0000000000000000e+00  2.6673456896063522e-05 -1.1421260295581022e-02 0.0000000000000000e+00  3.5552671377863813e-05 -1.0603525832485472e-02 0.0000000000000000e+00  7.9938340178832449e-06 -1.1380262503275385e-02 0.0000000000000000e+00  5.8198335775885387e-06 -7.3595420615839569e-03 0.0000000000000000e+00  1.7018012167115286e-05 -1.1011939225816692e-02 0.0000000000000000e+00  2.5776375808493447e-05 -1.1435054053670457e-02 0.0000000000000000e+00  3.5216976081945246e-05 -1.0617343038719872e-02 0.0000000000000000e+00  1.4592478819794846e-05 -1.1103224324164204e-02 0.0000000000000000e+00  1.9774417297109947e-05 -1.1412145421345908e-02 0.0000000000000000e+00  1.1687927074188876e-05 -7.4562328710954771e-03 0.0000000000000000e+00  5.4282152142376540e-06 -1.1395690873005191e-02 0.0000000000000000e+00  5.0734075833577982e-06 -7.3727070398581602e-03 0.0000000000000000e+00  8.5778806696770111e-06 -1.1321936517925025e-02 0.0000000000000000e+00  6.2821111288093087e-06 -7.3069155882383458e-03 0.0000000000000000e+00  -9.4629428067729143e-06 -1.1017791481352379e-02 0.0000000000000000e+00  5.8058062086135278e-07 -1.1390084119028997e-02 0.0000000000000000e+00  -2.6076784262869984e-05 -1.0582069871363937e-02 0.0000000000000000e+00  1.2696809083570923e-05 -1.1461215580491036e-02 0.0000000000000000e+00  1.6175075662714612e-05 -1.1466070802679034e-02 0.0000000000000000e+00  1.2877311864242688e-05 -1.1464400102918989e-02 0.0000000000000000e+00  2.2248215563748632e-05 -1.1414851709822109e-02 0.0000000000000000e+00  2.3666828563344295e-05 -1.1415902013598838e-02 0.0000000000000000e+00  2.1546937870026653e-05 -1.1415900944063476e-02 0.0000000000000000e+00  9.6449065076456828e-06 -1.1440333720396703e-02 0.0000000000000000e+00  7.9954561686291754e-06 -1.1440729855085102e-02 0.0000000000000000e+00  1.0785933470162718e-05 -1.1442004165271108e-02 0.0000000000000000e+00  1.8735979322683728e-05 -1.1445984544655346e-02 0.0000000000000000e+00  2.1465044914668483e-05 -1.1447592001100649e-02 0.0000000000000000e+00  1.9700878533906533e-05 -1.1447642645085790e-02 0.0000000000000000e+00  -2.3388305420943857e-06 -1.1056079778942178e-02 0.0000000000000000e+00  6.8167849964880408e-06 -1.1400885180193852e-02 0.0000000000000000e+00  -1.6444476580371396e-05 -1.0632072128488707e-02 0.0000000000000000e+00  1.6008302586756107e-05 -1.1392619875283734e-02 0.0000000000000000e+00  1.6487006038497024e-05 -1.1381868659175405e-02 0.0000000000000000e+00  1.4637405018333239e-05 -1.1434549930041260e-02 0.0000000000000000e+00  2.2446432517951360e-05 -1.1114201161522765e-02 0.0000000000000000e+00  1.5774766351740593e-05 -1.1350005567513945e-02 0.0000000000000000e+00  1.9504065169825823e-05 -1.1402049241106027e-02 0.0000000000000000e+00  1.4193446309533426e-05 -1.1382743680499156e-02 0.0000000000000000e+00  1.1823079449265440e-05 -1.1369040576502298e-02 0.0000000000000000e+00  1.1606107169947496e-05 -1.14239463539