<?xml version="1.0"?>
<VTKFile type="UnstructuredGrid"  version="0.1"  >
<UnstructuredGrid>
<Piece  NumberOfPoints="2690" NumberOfCells="4864">
<Points>
<DataArray  type="Float64"  NumberOfComponents="3"  format="ascii">-5.032664007956801 22.00717466808202 0  -5.629993757471675 21.26974710584808 0  -5.032010704253564 21.50776412943595 0  -5.031263343254898 21.00722200239275 0  -5.630630073949773 21.76987544038747 0  -6.228620944712805 21.53141668101249 0  -9 21.99999999996945 0  -8.401643679534043 21.2639994581277 0  -9 21.49999999997139 0  -9 20.99999999997333 0  -8.401756856038238 21.76399104203207 0  -7.803406802221791 21.52796346464496 0  -9 32.9999999999446 0  -8.404130353094615 32.26397619013791 0  -9 32.49999999994358 0  -9 31.99999999994255 0  -8.40424357640992 32.76397825379813 0  -7.808379793213835 32.52793971249843 0  -5.049170984890143 33.00776040003125 0  -5.561608529728993 32.30403675209365 0  -5.048485248351192 32.50878882091682 0  -5.047705282850055 32.00751382542217 0  -5.562263870625674 32.80423419763427 0  -6.075382016284543 32.59959695764987 0  -5.080951864819491 54.00741531597647 0  -5.672755692852655 54.74456720623319 0  -5.672129834307634 54.24487489403719 0  -6.263236297376215 54.48125115294931 0  -5.081667448687133 54.50794883005001 0  -5.082337561557214 55.00749053465591 0  -9 54.99999999998974 0  -8.48070569906651 54.29738136900943 0  -9 54.49999999998872 0  -9 53.99999999998769 0  -8.480803882054449 54.79735118019262 0  -7.96152951645834 54.59471196067202 0  -9 39.99999999995897 0  -8.40605260121486 40.73895348138227 0  -8.405939388830456 40.23895493603916 0  -7.811986684814142 40.47788878748671 0  -9 40.49999999996 0  -9 40.99999999996102 0  -5.061208471299651 41.00687888417478 0  -5.627934285736797 40.27521725721213 0  -5.060530200776928 40.50798616905538 0  -5.059805753725453 40.00774558025731 0  -5.628572339515867 40.77510037666693 0  -6.195981047515063 40.5420692178006 0  -9 55.99999999999179 0  -8.433962915054957 56.74467296350446 0  -8.433865659949594 56.24465401946135 0  -7.867833222063244 56.48930731782742 0  -9 56.49999999999282 0  -9 56.99999999999384 0  -5.083963562745105 56.00708952155121 0  -5.651001127666459 56.75042939144799 0  -5.650379402751928 56.25039987397147 0  -6.216702713809686 56.49282515908065 0  -5.084724165852944 56.50818625226758 0  -5.085391563979392 57.00751146304173 0  -7.462603569422473 43.0040605854435 0  -6.628448024445963 43.11451206634788 0  -7.22815828420017 43.34208615338335 0  -6.993772687544005 43.68011774069181 0  -6.862834669741567 42.77644248585112 0  -6.262961060874146 42.54882524840909 0  -6.607141861215738 49.00765501461781 0  -7.439427179787169 48.89677519637684 0  -6.840994550058697 48.66957511112137 0  -7.074910960690904 48.33147282437909 0  -7.20551538441934 49.23483951911165 0  -7.803782609617525 49.46207897307783 0  -6.604387053481532 46.0071923667365 0  -7.437632123257035 45.89647756155293 0  -6.838514785555796 45.66903025245232 0  -7.072704467208359 45.3309051412173 0  -7.203446916696701 46.23459774410735 0  -7.802402364137103 46.46197595294988 0  -6.56878811561401 7.00745489131 0  -7.414417175081927 6.8966830590476 0  -6.806401473678518 6.669370752827066 0  -7.044076836541355 6.331288496805731 0  -7.176746328534624 7.234764462494609 0  -7.784600804096304 7.462068218292651 0  -7.454968623396144 30.00401486252028 0  -6.61666838326432 30.11441115181572 0  -7.219359412705384 30.34193136939871 0  -6.983810794854759 30.67982346044626 0  -6.852219614625589 29.77647093363331 0  -6.24936458782995 29.54896593913727 0  -6.566131577590621 4.007099765601514 0  -7.41282262873313 4.112802672905025 0  -6.8045457662429 4.343804912609809 0  -7.042903622154689 4.680486431013609 0  -7.174468477884859 3.776106304982012 0  -7.7828947657664 3.545159906737501 0  -6.57149594446114 10.00752083165839 0  -7.416308225809277 10.11308408621824 0  -6.809392132154114 10.34413183818336 0  -7.047230419064028 10.68074300058072 0  -7.178465654545942 9.776479905659636 0  -7.785539927214471 9.545430597810363 0  -6.574210172651609 13.00758463108486 0  -7.417950296331837 12.89678761057383 0  -6.811290053692305 12.66950295185312 0  -7.048431568633366 12.33142380806028 0  -7.180811718279961 13.23487799090944 0  -7.787310982185774 13.46214972219415 0  -6.576935421397591 16.00770072247187 0  -7.419728897460531 15.89682123022906 0  -6.813747642224977 15.66962745162264 0  -7.05062245203699 15.33153566580751 0  -7.182858508144731 16.23488541237742 0  -7.78867692192195 16.46211356206671 0  -6.579691615447842 19.00689594566822 0  -7.421656499526489 19.1125971016625 0  -6.816797423661873 19.34338470898688 0  -7.053840332430835 19.67991679053055 0  -7.18460896986142 18.77604309869205 0  -7.78963349489955 18.54517015699348 0  -6.587000180821397 27.00663786796915 0  -7.42642279448889 27.11243523592204 0  -6.823385505438857 27.34327159352329 0  -7.059711167165334 27.67991561758431 0  -7.190094168618709 26.77575062564947 0  -7.793291979347158 26.54492359935629 0  -8.27430993769768 19.09593270119727 0  -8.031997264406263 18.82054008331097 0  -8.394754278026124 18.27260509391727 0  -8.637079202245943 18.54799771218023 0  -9 17.99999999998495 0  -8.276501800356996 27.09585130476792 0  -8.034922014568794 26.82038833415759 0  -8.396584343421157 26.27245523846436 0  -8.638176160253284 26.54792433027358 0  -9 25.99999999995395 0  -8.273431769019531 15.90838367997789 0  -8.031029008581275 16.18525270081136 0  -8.394400325386721 16.73104047359518 0  -8.636790851079857 16.45417999860074 0  -9 16.99999999998883 0  -5.767544754551857 30.1026715897645 0  -6.008427545776017 29.82580948912366 0  -5.64634606324724 29.27975099731758 0  -5.405446880543826 29.55694986393065 0  -5.043107376396039 29.00716268042215 0  -8.272613624854426 12.90838100923458 0  -8.02993717699413 13.18526385464055 0  -8.393716680040956 13.73107798308498 0  -8.636381194044384 13.45419398131938 0  -9 13.99999999999401 0  -8.271850984523834 10.09616081497145 0  -8.028720285900713 9.820796009741892 0  -8.392708721964746 9.272714104214149 0  -8.635851590639783 9.548078976522792 0  -9 8.99999999999857 0  -8.270253597801595 4.096027639376627 0  -8.026596848688046 3.820599774395126 0  -8.391397726966655 3.272569535806328 0  -8.635060894379674 3.547998923165246 0  -9 2.999999999998668 0  -8.270989838537927 6.908328688171116 0  -8.027770329031766 7.185197023573736 0  -8.392361317846374 7.731036263908289 0  -8.635568683951833 7.454168722369675 0  -9 7.999999999999485 0  -8.281663284218368 45.90823401794569 0  -8.042007579871258 46.18509668815437 0  -8.401262943772817 46.73100092427768 0  -8.640906391090255 46.45413898569274 0  -9 46.99999999997333 0  -8.282488613583311 48.90835840447657 0  -8.043109950369564 49.18522268269118 0  -8.401953767607159 49.7310226484564 0  -8.641320137209492 49.45416880782287 0  -9 49.99999999997949 0  -5.783528761701009 43.10275780031392 0  -6.023217312508345 42.82578789794692 0  -5.662923338912084 42.27951011435674 0  -5.423220149487829 42.556855723373 0  -5.062658689125332 42.00687403934247 0  -5.755281088583259 23.92517751795905 0  -6.002132941970665 24.19213972667838 0  -5.643034152766494 24.7348306033838 0  -6.248931361161481 24.45912525141091 0  -5.396215289221252 24.46820841439965 0  -5.037242820696373 25.00713859308899 0  -8.288021609495637 52.08568263193992 0  -8.044006319385685 51.81867736432891 0  -8.399906352896434 51.27586579664999 0  -7.799940402986465 51.55169227767089 0  -8.643935948503369 51.54287062272403 0  -9 50.99999999998153 0  -5.772682872287584 38.09243214812834 0  -6.017600587740263 37.82387255779012 0  -5.658963521959936 37.28278487469061 0  -6.262571364553239 37.55533938624149 0  -5.414027643123163 37.55175004297157 0  -5.055113429298367 37.00655470217089 0  -5.768786922769051 34.92510750927435 0  -6.014615596867696 35.19201862118577 0  -5.657020053362384 35.73462075126474 0  -6.260390932475271 35.45895234303749 0  -5.411219747110854 35.46809963837779 0  -5.05376208601408 36.00682163629894 0  -7.904860700865211 50.50350313583048 0  -7.852389755054927 51.02760670698784 0  -8.452483146529207 50.75173271109817 0  -6.155652697670031 36.50708509039526 0  -6.209120138881778 37.03116744313923 0  -5.605393616200178 36.75809185208048 0  -6.208012847829992 35.98297346032905 0  -5.604754447626237 36.25801712319453 0  -6.005129631689933 25.26775039716854 0  -6.127014447521507 24.86345391707492 0  -5.521209311517968 25.13875343162035 0  -8.036818723808151 25.74839148853233 0  -7.915037018824405 26.14665731805186 0  -8.518432315224688 25.87419689666715 0  -6.968717166294283 34.3811315263922 0  -6.614480026843599 34.92008174717288 0  -6.868357261739094 35.24392579626601 0  -7.222603048714305 34.70503413994059 0  -7.476425648216128 35.02892412105263 0  -7.095919243899095 52.62931273602319 0  -7.447855750644742 52.0905404127391 0  -7.195674984768305 51.76680721489417 0  -6.843746159703852 52.30560098345535 0  -6.591509120743331 51.98191003231343 0  -6.972007361336566 38.6292821454718 0  -6.61736310504345 38.09235185646902 0  -6.870405169510873 37.76710739098501 0  -7.225041358134316 38.30409975066038 0  -7.478138417781488 37.97890236825688 0  -6.960229277555107 23.38117019238912 0  -6.604507020849774 23.92017204740692 0  -6.859442068936349 24.24404825405862 0  -7.215173425118702 23.705096144227 0  -7.470054678632382 24.02900200230284 0  -7.891166684319649 17.50335935515269 0  -7.840389600761606 18.02427540424914 0  -8.445635912099249 17.75166011789465 0  -7.839931714470474 16.98274037651262 0  -8.445530809109409 17.25169046216748 0  -7.887427138966526 8.503438138979895 0  -7.836473717891597 9.024435042806099 0  -8.443764987422103 8.751719846878158 0  -7.932316375885376 2.418583722425304 0  -7.857584502401024 2.981862710549498 0  -8.466206994477513 2.709301986435996 0  -7.836023883181594 7.982755062724125 0  -8.44366179495089 8.251716646824017 0  -7.854331883613514 49.98279529913073 0  -8.452377209046103 50.25176256616365 0  -6.072795727702088 41.60005812796097 0  -6.167894570778298 42.07447185675
[...]
<PointData  Vectors="f_27"> 
<DataArray  type="Float64"  Name="f_27"  NumberOfComponents="3" format="ascii">0.0000000000000000e+00 0.0000000000000000e+00 0.0000000000000000e+00  2.6162511032873174e-06 -7.5050998821790957e-03 0.0000000000000000e+00  0.0000000000000000e+00 0.0000000000000000e+00 0.0000000000000000e+00  0.0000000000000000e+00 0.0000000000000000e+00 0.0000000000000000e+00  -1.1370756430024727e-05 -1.0504489525303386e-02 0.0000000000000000e+00  1.3677906962368994e-06 -1.0809329638575031e-02 0.0000000000000000e+00  0.0000000000000000e+00 0.0000000000000000e+00 0.0000000000000000e+00  1.2113690035753211e-05 -7.6412708769859981e-03 0.0000000000000000e+00  0.0000000000000000e+00 0.0000000000000000e+00 0.0000000000000000e+00  0.0000000000000000e+00 0.0000000000000000e+00 0.0000000000000000e+00  3.6031771679777175e-05 -1.0482594216970172e-02 0.0000000000000000e+00  2.3252435618165770e-05 -1.0854288705748606e-02 0.0000000000000000e+00  0.0000000000000000e+00 0.0000000000000000e+00 0.0000000000000000e+00  1.1456960890526068e-05 -7.4762695176336909e-03 0.0000000000000000e+00  0.0000000000000000e+00 0.0000000000000000e+00 0.0000000000000000e+00  0.0000000000000000e+00 0.0000000000000000e+00 0.0000000000000000e+00  3.5130865223420915e-05 -1.0449763347054452e-02 0.0000000000000000e+00  2.3118469506831614e-05 -1.0822210840191504e-02 0.0000000000000000e+00  0.0000000000000000e+00 0.0000000000000000e+00 0.0000000000000000e+00  3.2616014103913068e-06 -7.8515742743577813e-03 0.0000000000000000e+00  0.0000000000000000e+00 0.0000000000000000e+00 0.0000000000000000e+00  0.0000000000000000e+00 0.0000000000000000e+00 0.0000000000000000e+00  -1.5763469027814105e-06 -1.0494195906555589e-02 0.0000000000000000e+00  6.4942124004082594e-06 -1.0850831592474908e-02 0.0000000000000000e+00  0.0000000000000000e+00 0.0000000000000000e+00 0.0000000000000000e+00  1.0027785518804466e-05 -7.7812527150323907e-03 0.0000000000000000e+00  3.3957776908863225e-05 -1.0417105929489688e-02 0.0000000000000000e+00  2.0863856552326466e-05 -1.0772789685107788e-02 0.0000000000000000e+00  0.0000000000000000e+00 0.0000000000000000e+00 0.0000000000000000e+00  0.0000000000000000e+00 0.0000000000000000e+00 0.0000000000000000e+00  0.0000000000000000e+00 0.0000000000000000e+00 0.0000000000000000e+00  8.3446517833406902e-06 -7.7687899266787475e-03 0.0000000000000000e+00  0.0000000000000000e+00 0.0000000000000000e+00 0.0000000000000000e+00  0.0000000000000000e+00 0.0000000000000000e+00 0.0000000000000000e+00  1.5549104760316388e-05 -1.0512724848809777e-02 0.0000000000000000e+00  1.4476691055360332e-05 -1.0798893758348862e-02 0.0000000000000000e+00  0.0000000000000000e+00 0.0000000000000000e+00 0.0000000000000000e+00  7.5825471099292090e-06 -7.4413332132835224e-03 0.0000000000000000e+00  -7.1196586467071030e-06 -1.0434464087804815e-02 0.0000000000000000e+00  4.4760529924765542e-06 -1.0800829908126912e-02 0.0000000000000000e+00  0.0000000000000000e+00 0.0000000000000000e+00 0.0000000000000000e+00  0.0000000000000000e+00 0.0000000000000000e+00 0.0000000000000000e+00  0.0000000000000000e+00 0.0000000000000000e+00 0.0000000000000000e+00  1.3166838694083811e-05 -7.5780720154953775e-03 0.0000000000000000e+00  0.0000000000000000e+00 0.0000000000000000e+00 0.0000000000000000e+00  0.0000000000000000e+00 0.0000000000000000e+00 0.0000000000000000e+00  2.0326015834337535e-06 -1.0553327361353688e-02 0.0000000000000000e+00  9.6929415276100894e-06 -1.0825478041221840e-02 0.0000000000000000e+00  0.0000000000000000e+00 0.0000000000000000e+00 0.0000000000000000e+00  1.7679214516451983e-05 -8.0657139591132111e-03 0.0000000000000000e+00  2.6690184549740134e-06 -1.0449344704441478e-02 0.0000000000000000e+00  1.5254851725438801e-05 -1.0788389098766516e-02 0.0000000000000000e+00  0.0000000000000000e+00 0.0000000000000000e+00 0.0000000000000000e+00  0.0000000000000000e+00 0.0000000000000000e+00 0.0000000000000000e+00  0.0000000000000000e+00 0.0000000000000000e+00 0.0000000000000000e+00  1.3313907092096181e-06 -8.0676788119341189e-03 0.0000000000000000e+00  2.0490755436830267e-05 -1.0448583001066523e-02 0.0000000000000000e+00  9.6844223089468702e-06 -1.0784421573843106e-02 0.0000000000000000e+00  0.0000000000000000e+00 0.0000000000000000e+00 0.0000000000000000e+00  0.0000000000000000e+00 0.0000000000000000e+00 0.0000000000000000e+00  1.9869139161007966e-05 -1.1106123010747513e-02 0.0000000000000000e+00  2.1215019657968120e-05 -1.1114033843890946e-02 0.0000000000000000e+00  1.8555858683431750e-05 -1.1115078752478207e-02 0.0000000000000000e+00  1.7348065884789524e-05 -1.1115413694733543e-02 0.0000000000000000e+00  1.9946083819575499e-05 -1.1114059505598621e-02 0.0000000000000000e+00  1.4496249492213391e-05 -1.1074203380794947e-02 0.0000000000000000e+00  2.5842202891054717e-05 -1.1085345549640533e-02 0.0000000000000000e+00  2.3817149649832883e-05 -1.1080077622569256e-02 0.0000000000000000e+00  2.6096987569387448e-05 -1.1094615298658553e-02 0.0000000000000000e+00  2.5620916630417560e-05 -1.1089117748758395e-02 0.0000000000000000e+00  2.2970743466873794e-05 -1.1091897053526981e-02 0.0000000000000000e+00  1.7226843485150945e-05 -1.1051037980936054e-02 0.0000000000000000e+00  1.8082607903079655e-05 -1.1094870600248262e-02 0.0000000000000000e+00  1.6490225155234507e-05 -1.1100613074948718e-02 0.0000000000000000e+00  1.6011593438667703e-05 -1.1104878846084264e-02 0.0000000000000000e+00  1.4610100834642830e-05 -1.1107722599572458e-02 0.0000000000000000e+00  1.7398083136353093e-05 -1.1099130283891404e-02 0.0000000000000000e+00  1.3618248290761304e-05 -1.1056536977698816e-02 0.0000000000000000e+00  1.9385720547710573e-05 -1.1184176996447609e-02 0.0000000000000000e+00  1.6838385136348401e-05 -1.1190925227365962e-02 0.0000000000000000e+00  1.8153146821135928e-05 -1.1194282155452633e-02 0.0000000000000000e+00  1.8917199400803878e-05 -1.1195631038795881e-02 0.0000000000000000e+00  1.6950142478101967e-05 -1.1191543921125589e-02 0.0000000000000000e+00  1.2166735173140804e-05 -1.1153040490637447e-02 0.0000000000000000e+00  1.6240163525127504e-05 -1.1131184551082718e-02 0.0000000000000000e+00  2.2146105388099934e-05 -1.1128005429180719e-02 0.0000000000000000e+00  1.6242366933736269e-05 -1.1143837791908263e-02 0.0000000000000000e+00  1.6368232636627962e-05 -1.1136346606614930e-02 0.0000000000000000e+00  1.9497568158274764e-05 -1.1138036691997351e-02 0.0000000000000000e+00  1.7800225766442043e-05 -1.1094801777535676e-02 0.0000000000000000e+00  2.3406352130425542e-05 -1.1195404506775881e-02 0.0000000000000000e+00  2.2489275143883413e-05 -1.1198510402843089e-02 0.0000000000000000e+00  2.3234235402085948e-05 -1.1202577897262351e-02 0.0000000000000000e+00  2.1943889246659658e-05 -1.1201262043170108e-02 0.0000000000000000e+00  2.2648432058559354e-05 -1.1200571579121485e-02 0.0000000000000000e+00  2.5048391014618729e-05 -1.1163487266023878e-02 0.0000000000000000e+00  2.6017226774508082e-05 -1.1179699159024153e-02 0.0000000000000000e+00  2.4697959290658909e-05 -1.1182911250882497e-02 0.0000000000000000e+00  2.4541343690602929e-05 -1.1186546153168057e-02 0.0000000000000000e+00  2.3053142524563648e-05 -1.1185563479753111e-02 0.0000000000000000e+00  2.6708189281964498e-05 -1.1185187389795929e-02 0.0000000000000000e+00  3.0683310104763751e-05 -1.1141461842095787e-02 0.0000000000000000e+00  1.9783505774592760e-05 -1.1169001208670161e-02 0.0000000000000000e+00  1.8269073165975575e-05 -1.1175791849074678e-02 0.0000000000000000e+00  1.9022479119718114e-05 -1.1179212976180946e-02 0.0000000000000000e+00  2.0092372577021196e-05 -1.1180676463143108e-02 0.0000000000000000e+00  1.7789012060916575e-05 -1.1175419114391887e-02 0.0000000000000000e+00  1.3519368479468936e-05 -1.1133951550931069e-02 0.0000000000000000e+00  2.4888328448067205e-05 -1.1164252692833412e-02 0.0000000000000000e+00  2.2986528438847364e-05 -1.1158615307731858e-02 0.0000000000000000e+00  2.5218135307963762e-05 -1.1173234058451064e-02 0.0000000000000000e+00  2.4840303976697732e-05 -1.1167582234257682e-02 0.0000000000000000e+00  2.1976775339107117e-05 -1.1170618165936133e-02 0.0000000000000000e+00  1.6335927867357585e-05 -1.1129655560591672e-02 0.0000000000000000e+00  3.2406080982130969e-05 -1.1155372250426692e-02 0.0000000000000000e+00  2.4868839775877329e-05 -1.1154232731519416e-02 0.0000000000000000e+00  2.9752011814934914e-05 -1.1168470252937848e-02 0.0000000000000000e+00  2.4598729383062598e-05 -1.1160199878515381e-02 0.0000000000000000e+00  2.9020238036910194e-05 -1.1166008456162311e-02 0.0000000000000000e+00  3.1097007413634909e-05 -1.1120605679483794e-02 0.0000000000000000e+00  2.7985060188218508e-05 -1.1135937662674874e-02 0.0000000000000000e+00  2.4436708705711380e-05 -1.1146215497470567e-02 0.0000000000000000e+00  2.7546959199844563e-05 -1.1148277778273189e-02 0.0000000000000000e+00  2.4258875516687005e-05 -1.1144071771153228e-02 0.0000000000000000e+00  2.4369836071614640e-05 -1.1146879535344092e-02 0.0000000000000000e+00  2.5400327291762605e-05 -1.1108533854113898e-02 0.0000000000000000e+00  1.6134633131274501e-05 -1.0458808931777704e-02 0.0000000000000000e+00  2.7114638679935665e-05 -1.1052987863845053e-02 0.0000000000000000e+00  3.5310349142116943e-05 -1.0579555587388293e-02 0.0000000000000000e+00  2.1651470936878073e-05 -7.5303403244602494e-03 0.0000000000000000e+00  0.0000000000000000e+00 0.0000000000000000e+00 0.0000000000000000e+00  1.7991370595403738e-05 -1.0450050360804458e-02 0.0000000000000000e+00  2.2811745883501338e-05 -1.1036586465152482e-02 0.0000000000000000e+00  2.7097344044497550e-05 -1.0566138226666983e-02 0.0000000000000000e+00  1.7573659308343627e-05 -7.5088174541115184e-03 0.0000000000000000e+00  0.0000000000000000e+00 0.0000000000000000e+00 0.0000000000000000e+00  1.7407196070894839e-05 -1.0476075590338176e-02 0.0000000000000000e+00  1.2485262269350128e-05 -1.1055077284464350e-02 0.0000000000000000e+00  4.0060605817068165e-06 -1.0650771407465049e-02 0.0000000000000000e+00  -5.5188815648160206e-07 -7.4614336301702605e-03 0.0000000000000000e+00  0.0000000000000000e+00 0.0000000000000000e+00 0.0000000000000000e+00  2.5732316300065902e-05 -1.0433932495578906e-02 0.0000000000000000e+00  3.0303651539183063e-05 -1.1023115974512632e-02 0.0000000000000000e+00  8.0736005612172545e-06 -1.0566935145686839e-02 0.0000000000000000e+00  7.6899324171634486e-06 -7.5139019247704433e-03 0.0000000000000000e+00  0.0000000000000000e+00 0.0000000000000000e+00 0.0000000000000000e+00  1.8009542052290924e-05 -1.0476904105163526e-02 0.0000000000000000e+00  1.3624468711499392e-05 -1.1062125917176875e-02 0.0000000000000000e+00  6.5008752924995729e-06 -1.0595802208715071e-02 0.0000000000000000e+00  6.2580646487963473e-06 -7.5370958778105410e-03 0.0000000000000000e+00  0.0000000000000000e+00 0.0000000000000000e+00 0.0000000000000000e+00  2.1080725551496499e-05 -1.0481337215303650e-02 0.0000000000000000e+00  2.8700764169486559e-05 -1.1070221181967606e-02 0.0000000000000000e+00  3.5761437807383492e-05 -1.0596850414748027e-02 0.0000000000000000e+00  2.3160621982377818e-05 -7.5492186715434041e-03 0.0000000000000000e+00  0.0000000000000000e+00 0.0000000000000000e+00 0.0000000000000000e+00  2.1237831880242006e-05 -1.0512072543083490e-02 0.0000000000000000e+00  2.6230423664102455e-05 -1.1085019696702994e-02 0.0000000000000000e+00  3.1579193031494371e-05 -1.0683771513820807e-02 0.0000000000000000e+00  2.5459453460226032e-05 -7.4944929395004984e-03 0.0000000000000000e+00  0.0000000000000000e+00 0.0000000000000000e+00 0.0000000000000000e+00  1.2781685554239072e-05 -1.0504653617591519e-02 0.0000000000000000e+00  8.6919122699953756e-06 -1.1076299027741441e-02 0.0000000000000000e+00  1.5062959197657832e-06 -1.0670334582070210e-02 0.0000000000000000e+00  -2.2880137945715903e-06 -7.4834929866778128e-03 0.0000000000000000e+00  0.0000000000000000e+00 0.0000000000000000e+00 0.0000000000000000e+00  1.8868991756520294e-05 -1.0395463258012555e-02 0.0000000000000000e+00  1.3873998754301921e-05 -1.0983140247970185e-02 0.0000000000000000e+00  7.0798970700406198e-06 -1.0520173402873053e-02 0.0000000000000000e+00  6.5541755419963208e-06 -7.4543338268192941e-03 0.0000000000000000e+00  0.0000000000000000e+00 0.0000000000000000e+00 0.0000000000000000e+00  1.7971734592601742e-05 -1.0394578838751974e-02 0.0000000000000000e+00  1.3315816207829797e-05 -1.0975520841079067e-02 0.0000000000000000e+00  5.0695503990310580e-06 -1.0574536198503501e-02 0.0000000000000000e+00  2.0782774433012188e-07 -7.3793456570418999e-03 0.0000000000000000e+00  0.0000000000000000e+00 0.0000000000000000e+00 0.0000000000000000e+00  2.2776026602331361e-05 -1.0411581729453405e-02 0.0000000000000000e+00  2.6632751679512689e-05 -1.0999862234365996e-02 0.0000000000000000e+00  8.1586812567413064e-07 -1.0542205135230102e-02 0.0000000000000000e+00  5.4002917135226275e-06 -7.4886410576598733e-03 0.0000000000000000e+00  0.0000000000000000e+00 0.0000000000000000e+00 0.0000000000000000e+00  2.4258036851868485e-05 -1.0496473116959202e-02 0.0000000000000000e+00  3.6424583805447414e-05 -1.1049693670577499e-02 0.0000000000000000e+00  2.6424425430077871e-05 -1.0554559316318260e-02 0.0000000000000000e+00  2.6456769122342033e-05 -1.1110534106831037e-02 0.0000000000000000e+00  1.8139100020259060e-05 -7.5174207581682594e-03 0.0000000000000000e+00  0.0000000000000000e+00 0.0000000000000000e+00 0.0000000000000000e+00  1.9948726294232082e-05 -1.0423134151013735e-02 0.0000000000000000e+00  2.9013761700239390e-05 -1.0978472479963334e-02 0.0000000000000000e+00  3.5584385597575290e-05 -1.0502436688496625e-02 0.0000000000000000e+00  3.0411138028033590e-05 -1.1037621284960615e-02 0.0000000000000000e+00  2.1512460376089278e-05 -7.4699064362260051e-03 0.0000000000000000e+00  0.0000000000000000e+00 0.0000000000000000e+00 0.0000000000000000e+00  2.1852840134042870e-05 -1.0461362478707789e-02 0.0000000000000000e+00  2.2910339135354855e-05 -1.1010645979997175e-02 0.0000000000000000e+00  -2.2311745842557354e-06 -1.0550861650660395e-02 0.0000000000000000e+00  1.2507445864099070e-05 -1.1073249472494258e-02 0.0000000000000000e+00  4.6257088567808326e-06 -7.5256937588237087e-03 0.0000000000000000e+00  0.0000000000000000e+00 0.0000000000000000e+00 0.0000000000000000e+00  3.2848446699640833e-05 -1.0485424758449494e-02 0.0000000000000000e+00  4.5288359708725653e-05 -1.1020949623436386e-02 0.0000000000000000e+00  3.3130643707710585e-05 -1.0599948968475168e-02 0.0000000000000000e+00  3.1541029577841554e-05 -1.1088286170735158e-02 0.0000000000000000e+00  2.7853652105480589e-05 -7.4172119264307923e-03 0.0000000000000000e+00  0.0000000000000000e+00 0.0000000000000000e+00 0.0000000000000000e+00  2.3693857128538262e-05 -1.0625725508682987e-02 0.0000000000000000e+00  3.1475713588462103e-05 -1.1039278197192111e-02 0.0000000000000000e+00  3.9216139104879191e-05 -1.0241240385700255e-02 0.0000000000000000e+00  2.2815356607314310e-06 -1.0661576896858737e-02 0.0000000000000000e+00  4.8178538821782440e-06 -1.1073826955998584e-02 0.0000000000000000e+00  -2.4766614415207869e-05 -1.0278433823054770e-02 0.0000000000000000e+00  2.5393888046247387e-05 -1.1036289586671693e-02 0.0000000000000000e+00  -3.7273312686049401e-06 -7.1277659298007974e-03 0.0000000000000000e+00  1.2628848566730827e-05 -1.0803029366263381e-02 0.0000000000000000e+00  2.2007574352739144e-05 -1.1108795295817984e-02 0.0000000000000000e+00  9.9067979769517550e-06 -1.0363172387917381e-02 0.0000000000000000e+00  2.3546702416969673e-05 -1.0760064781828144e-02 0.0000000000000000e+00  2.4257611241714593e-05 -1.1100385065759976e-02 0.0000000000000000e+00  2.9834898918647895e-05 -1.0363287549356500e-02 0.0000000000000000e+00  2.5647343396892055e-05 -1.1131254872908234e-02 0.0000000000000000e+00  2.9963504979548758e-05 -1.1118106003672490e-02 0.0000000000000000e+00  2.6927066923424167e-05 -1.1131440049376357e-02 0.0000000000000000e+00  2.6380638819280851e-05 -1.1133184213136070e-02 0.0000000000000000e+00  2.4406007148514348e-05 -1.1122347929712581e-02 0.0000000000000000e+00  2.5358950854710304e-05 -1.1076324012783688e-02 0.0000000000000000e+00  2.2510012007730710e-05 -1.1061696016655322e-02 0.0000000000000000e+00  2.7142475812042384e-05 -1.1085227862414854e-02 0.0000000000000000e+00  2.7485904389904456e-05 -1.1086381718589951e-02 0.0000000000000000e+00  2.7818102555271042e-05 -1.1070608564124109e-02 0.0000000000000000e+00  1.9027203087295129e-05 -1.1121157128089159e-02 0.0000000000000000e+00  2.3206328315393130e-05 -1.1107097296753809e-02 0.0000000000000000e+00  1.7456348841005615e-05 -1.1121038589177181e-02 0.0000000000000000e+00  1.8398150770578279e-05 -1.1124193128797597e-02 0.0000000000000000e+00  1.5706553686720935e-05 -1.1114785522771566e-02 0.0000000000000000e+00  2.1497018396544180e-05 -1.1155873379050787e-02 0.0000000000000000e+00  2.4488099456483170e-05 -1.1144962870455905e-02 0.0000000000000000e+00  2.1620809553113635e-05 -1.1155450977653816e-02 0.0000000000000000e+00  2.1933214450382983e-05 -1.1157096687383064e-02 0.0000000000000000e+00  1.8726689125609763e-05 -1.1140890041986696e-02 0.0000000000000000e+00  2.3222934703211903e-05 -1.0704428949580144e-02 0.0000000000000000e+00  3.1518554102478689e-05 -1.1118732913921538e-02 0.0000000000000000e+00  3.9426246624962685e-05 -1.0321417325068919e-02 0.0000000000000000e+00  1.3467532712639666e-05 -1.1079080052180772e-02 0.0000000000000000e+00  9.1962593038440808e-06 -7.1609067856973655e-03 0.0000000000000000e+00  2.1771454664990270e-05 -1.0725164125839728e-02 0.0000000000000000e+00  3.0551177902996946e-05 -1.1137611285466255e-02 0.0000000000000000e+00  3.9121319651363911e-05 -1.0340031845278565e-02 0.0000000000000000e+00  1.9478341819246264e-05 -1.0816430804169264e-02 0.0000000000000000e+00  2.4557947843796457e-05 -1.1117697043748981e-02 0.0000000000000000e+00  1.4675699069577126e-05 -7.2616398067383448e-03 0.0000000000000000e+00  1.0743296477169843e-05 -1.1099564523485478e-02 0.0000000000000000e+00  8.3961399581827951e-06 -7.1784326679262675e-03 0.0000000000000000e+00  1.4256909046482282e-05 -1.0999716785401641e-02 0.0000000000000000e+00  9.7589638620586423e-06 -7.0898998086146824e-03 0.0000000000000000e+00  -7.1288957225591646e-06 -1.0710077761668026e-02 0.0000000000000000e+00  5.8861683676636628e-06 -1.1072991507600353e-02 0.0000000000000000e+00  -2.4487817261576188e-05 -1.0284681328760002e-02 0.0000000000000000e+00  1.7620160059114831e-05 -1.1153412509669617e-02 0.0000000000000000e+00  2.1216214106207181e-05 -1.1158427183831289e-02 0.0000000000000000e+00  1.8080643019054266e-05 -1.1156537792335879e-02 0.0000000000000000e+00  2.7583231753064703e-05 -1.1089010535243285e-02 0.0000000000000000e+00  2.8913663727163724e-05 -1.1090371096442130e-02 0.0000000000000000e+00  2.6913854303835357e-05 -1.1089563358456263e-02 0.0000000000000000e+00  1.4551865739698960e-05 -1.1123637263171882e-02 0.0000000000000000e+00  1.3162271418172082e-05 -1.1123815969550569e-02 0.0000000000000000e+00  1.6021707765660344e-05 -1.1125193799211832e-02 0.0000000000000000e+00  2.3323514325947141e-05 -1.1131100579861240e-02 0.0000000000000000e+00  2.6164873862890299e-05 -1.1132782801464756e-02 0.0000000000000000e+00  2.4605078936633589e-05 -1.1132809501145306e-02 0.0000000000000000e+00  -2.4216503167853308e-07 -1.0754970405102263e-02 0.0000000000000000e+00  1.1458981447870541e-05 -1.1090915895899344e-02 0.0000000000000000e+00  -1.6426046561052338e-05 -1.0340050342970765e-02 0.0000000000000000e+00  2.1178609854561551e-05 -1.1074352458468511e-02 0.0000000000000000e+00  2.3179571971821312e-05 -1.1064094385583168e-02 0.0000000000000000e+00  2.0175321699571542e-05 -1.1115481822284137e-02 0.0000000000000000e+00  2.7858927250017108e-05 -1.0798995513472931e-02 0.0000000000000000e+00  2.1612153856003373e-05 -1.1028196192924292e-02 0.0000000000000000e+00  2.5645270521258331e-05 -1.1079217895364564e-02 0.0000000000000000e+00  1.8945042328872404e-05 -1.1062345716793700e-02 0.0000000000000000e+00  1.7056913446651618e-05 -1.1048303807317578e-02 0.0000000000000000e+00  1.6724864248938902e-05 -1.1102350577734366e-0