<?xml version="1.0"?>
<VTKFile type="UnstructuredGrid"  version="0.1"  >
<UnstructuredGrid>
<Piece  NumberOfPoints="2690" NumberOfCells="4864">
<Points>
<DataArray  type="Float64"  NumberOfComponents="3"  format="ascii">-5.072900393457483 22.01594498534945 0  -5.663115961055904 21.27859083539881 0  -5.071465600921646 21.51724924600511 0  -5.069761035460399 21.01601983628346 0  -5.664560465785797 21.77888481941513 0  -6.256208723503095 21.5392533339861 0  -9 21.99999999996945 0  -8.407519689164294 21.26583201932293 0  -9 21.49999999997139 0  -9 20.99999999997333 0  -8.407776013603202 21.76581347663313 0  -7.815311405691379 21.53158494045336 0  -9 32.9999999999446 0  -8.413125325666497 32.26577986955792 0  -9 32.49999999994358 0  -9 31.99999999994255 0  -8.413381337477169 32.76578483991553 0  -7.826520481384778 32.53153148557772 0  -5.110087400805095 33.01723103728383 0  -5.613554717992876 32.31340916073886 0  -5.108591911768713 32.5195227739206 0  -5.106771073750952 32.01667244148381 0  -5.615050607236958 32.81385195559774 0  -6.120000205829276 32.60799927087895 0  -5.182251298025265 54.01641461431334 0  -5.759963871771876 54.7531508597332 0  -5.758537232751282 54.25383802938096 0  -6.334596141612845 54.48885102061808 0  -5.18393429920406 54.51764087509681 0  -5.185407971357521 55.01658126640068 0  -9 54.99999999998974 0  -8.49418851622176 54.29892517626261 0  -9 54.49999999998872 0  -9 53.99999999998769 0  -8.494415075879585 54.79885613791181 0  -7.988650752462071 54.59773468077926 0  -9 39.99999999995897 0  -8.417474146596692 40.7407267474062 0  -8.41721803678398 40.24073044739229 0  -7.83468087004437 40.48141276810681 0  -9 40.49999999996 0  -9 40.99999999996102 0  -5.137309120056798 41.01523228188622 0  -5.692005225257946 40.28422279772489 0  -5.13582557233767 40.51771165512796 0  -5.134148328457929 40.01715587300282 0  -5.693451533260665 40.78396467634325 0  -6.249629759704574 40.54990468406351 0  -9 55.99999999999179 0  -8.449328853881545 56.74631284472334 0  -8.449105092281293 56.24626913494686 0  -7.898444402304682 56.49253771644292 0  -9 56.49999999999282 0  -9 56.99999999999384 0  -5.189150891424202 56.01566934861606 0  -5.742151937549593 56.75905639357373 0  -5.740747877653898 56.25898888036738 0  -6.292067052450922 56.50032560552419 0  -5.19093820353786 56.51816902094973 0  -5.192407602083767 57.01663335700962 0  -7.493865691017374 43.00903136075824 0  -6.676812577331815 43.12228009143585 0  -7.264476491768463 43.3479015052304 0  -7.035219159957556 43.68678378489703 0  -6.906066556616286 42.78331075265457 0  -6.318039388939632 42.55759596495803 0  -6.662749866135486 49.01706275088006 0  -7.475607092055741 48.90285513588891 0  -6.890791155989008 48.67807266881074 0  -7.118984795872367 48.339030589262 0  -7.247427564557414 49.24181176622844 0  -7.831860203798549 49.46668279407385 0  -6.656536535819349 46.01602414799591 0  -7.471556906131402 45.9021825594661 0  -6.885210049721759 45.67684470429445 0  -7.114026126602427 45.33774798563145 0  -7.242750028672649 46.241266844547 0  -7.828732818624387 46.46644966570695 0  -6.576377629808116 7.016580826219617 0  -7.41928337078017 6.902623400169991 0  -6.812900400958163 6.677581815824371 0  -7.049566492344724 6.338586523368386 0  -7.182626616255057 7.241615839326765 0  -7.78864652709773 7.466639219564528 0  -7.476602683411538 30.00892954333541 0  -6.650176519202936 30.12205249552305 0  -7.244586106355878 30.34755399313086 0  -7.012705573721264 30.68612255030773 0  -6.882059502573768 29.78337455759448 0  -6.287281535202947 29.55790921533166 0  -6.570498725494539 4.015783637241029 0  -7.415754600971826 4.118469273647835 0  -6.808793134378548 4.351715724051487 0  -7.046969684932013 4.687596068212115 0  -7.177586031371159 3.782557071767707 0  -7.784870689916266 3.54943364774347 0  -6.58240696764587 10.01672144956059 0  -7.423492333447019 10.11909639185736 0  -6.819557756106134 10.35244466011381 0  -7.056584691610569 10.68816874465379 0  -7.186454094991224 9.783388988157146 0  -7.790736870188839 9.550036404098103 0  -6.588452652812158 13.01687170385321 0  -7.427148622450989 12.90285756849353 0  -6.823785111036942 12.67787818510625 0  -7.05925997643522 12.33888977141484 0  -7.191677571597464 13.24187008250232 0  -7.794679517544247 13.46682179197191 0  -6.594536119818583 16.01712978269369 0  -7.431124971694559 15.90293374362699 0  -6.82927106275716 15.67815541265764 0  -7.064152368223837 15.33913926078518 0  -7.196256151497875 16.24188819947904 0  -7.797739644481419 16.46674310369567 0  -6.600790305112083 19.01534248333128 0  -7.43549759561098 19.11801741216976 0  -6.836197312114077 19.35078875497624 0  -7.071457166224266 19.68633208753004 0  -7.200224845786917 18.78242396327551 0  -7.799908140242778 18.54946130477872 0  -6.617272207620136 27.01476965590831 0  -7.446248222543839 27.11765901549493 0  -6.851040678023106 27.35054029779568 0  -7.084678616000157 27.68633425238783 0  -7.21260759765803 26.78177377373045 0  -7.808172167384309 26.54891238773355 0  -8.28066738142137 19.09842068022135 0  -8.040346102785087 18.82391569680883 0  -8.399811590805562 18.27477537376343 0  -8.640160686531274 18.54928053919839 0  -9 17.99999999998495 0  -8.285612633621657 27.09824026759854 0  -8.046948569041165 26.82357837484527 0  -8.403947791356151 26.27444136591931 0  -8.642638527068002 26.54911708197446 0  -9 25.99999999995395 0  -8.278676164016492 15.91118133641208 0  -8.038150631086973 16.1889713105646 0  -8.3990092108035 16.73333553854938 0  -8.639506933895809 16.45556448946555 0  -9 16.99999999998883 0  -5.812999825373174 30.11341494587899 0  -6.050080012330872 29.8356440362875 0  -5.69214103423572 29.29069673660386 0  -5.455046663094619 29.5692203085324 0  -5.096352747689029 29.01593457638239 0  -8.276845649002267 12.91117436849656 0  -8.03570634494446 13.18899473629402 0  -8.397475548538445 13.73341786626929 0  -8.638588810239328 13.45559493053686 0  -9 13.99999999999401 0  -8.275147749481462 10.09892634780136 0  -8.032997214078479 9.824482018998919 0  -8.395231660854767 9.275015613995974 0  -8.6374098074138 9.549460009778432 0  -9 8.99999999999857 0  -8.271602086314379 4.098629475058032 0  -8.02828591819819 3.824044823598243 0  -8.392325520688592 3.274693694365612 0  -8.635656288073914 3.549281669472294 0  -9 2.999999999998668 0  -8.273231456138836 6.911057199042632 0  -8.030883019086779 7.188845048850364 0  -8.394458441614759 7.733324320953893 0  -8.636780185837075 7.455538322209131 0  -9 7.999999999999485 0  -8.297265052299057 45.91085402900179 0  -8.062942242488791 46.18863310709851 0  -8.414504597616959 46.73325421127991 0  -8.648800048970561 46.45547680446189 0  -9 46.99999999997333 0  -8.299128469695447 48.9111361125266 0  -8.065435396435198 49.18891860377939 0  -8.416072943736429 49.73330380194871 0  -8.649737585041844 49.45554464740968 0  -9 49.99999999997949 0  -5.849154196814359 43.11361110541214 0  -6.083534861399885 42.83559941828253 0  -5.729649541608677 42.29016246745329 0  -5.49526114787141 42.56901578918854 0  -5.140584071583085 42.01528013165602 0  -5.791322136242632 23.93602260512953 0  -6.035809720856648 24.20203274771054 0  -5.681621878735291 24.74574570087514 0  -6.2801759439082 24.46809654641255 0  -5.43722968203738 24.48049131636854 0  -5.083134762859067 25.01583294832246 0  -8.305692766962705 52.08814267062115 0  -8.067601160340446 51.82203446282897 0  -8.414548681468366 51.2780303994314 0  -7.829392513271639 51.55597156771911 0  -8.652673063928244 51.54413767425146 0  -9 50.99999999998153 0  -5.830593845876399 38.10316285935171 0  -6.070718582218197 37.83359726494836 0  -5.717573702618705 37.29344771961384 0  -6.310961855568682 37.56408246565759 0  -5.477432238876427 37.56392501077228 0  -5.123477372451198 37.01456938179742 0  -5.821773398641519 34.93586969966815 0  -6.063959093707242 35.20176516302543 0  -5.713166075593235 35.7452776132598 0  -6.306023777315742 35.4677113991294 0  -5.471065213626704 35.48025235203691 0  -5.120391179051194 36.01509280606562 0  -7.931147226305574 50.50759065429342 0  -7.880244139766003 51.03180143199079 0  -8.465694908598975 50.75375313745896 0  -6.204469948420509 36.51574147551543 0  -6.257733615117734 37.03981308386407 0  -5.664056031227203 36.76797579473415 0  -6.255223952246498 35.99162013443247 0  -5.662593730611746 36.26779314211064 0  -6.040269240275498 25.27727602234068 0  -6.160188723734358 24.87271974265559 0  -5.561826838159471 25.14946934323871 0  -8.04833474958626 25.75154567985952 0  -7.928212381180504 26.15022846054154 0  -8.524218455245935 25.87577550417954 0  -7.001474716735112 34.38753443132189 0  -6.653582275649668 34.9277156716828 0  -6.903634711168158 35.25069402835121 0  -7.251548165808506 34.71064573791033 0  -7.501478192850413 35.03372852256032 0  -7.143718994238137 52.63570232970283 0  -7.486383007607688 52.09592295191319 0  -7.240156458445308 51.7731922729188 0  -6.897509410092444 52.31302133196173 0  -6.651151189386654 51.99038592309861 0  -7.008920111898423 38.63562821137747 0  -6.660108014475898 38.09994763499113 0  -6.908270439591866 37.7738494269135 0  -7.257066222456471 38.30967163804912 0  -7.505354508576933 37.98367995569985 0  -6.982338425791185 23.38761945125538 0  -6.63109284458162 23.92791535707124 0  -6.883525612134838 24.25096646591871 0  -7.23479433814638 23.71078287954797 0  -7.487108326451093 24.03390154624552 0  -7.900016304007611 17.50747416847231 0  -7.849937371796615 18.02849168452044 0  -8.450127354208204 17.75369372872476 0  -7.848899867433117 16.98711735363748 0  -8.449889128640148 17.25376114221117 0  -7.891660373119086 8.507645668379114 0  -7.841177251780187 9.02884256865172 0  -8.445943944769919 8.753824510452025 0  -7.933607556558671 2.422240104932837 0  -7.859193452514364 2.98581674590828 0  -8.466910932672414 2.711142378610567 0  -7.840175919110704 7.987146624241528 0  -8.445714259695709 8.253817462072373 0  -7.88152682331885 49.98714619301259 0  -8.465451361873631 50.25382043607407 0  -6.130324888958107 41.60855550615292 0  -6.224222065365094 42.08314608172661 
[...]
<PointData  Vectors="f_27"> 
<DataArray  type="Float64"  Name="f_27"  NumberOfComponents="3" format="ascii">0.0000000000000000e+00 0.0000000000000000e+00 0.0000000000000000e+00  8.2136401288130181e-06 -1.1872125008131462e-02 0.0000000000000000e+00  0.0000000000000000e+00 0.0000000000000000e+00 0.0000000000000000e+00  0.0000000000000000e+00 0.0000000000000000e+00 0.0000000000000000e+00  -6.7224568445095337e-06 -1.6642683801922079e-02 0.0000000000000000e+00  1.5158136371230078e-05 -1.7119032601792351e-02 0.0000000000000000e+00  0.0000000000000000e+00 0.0000000000000000e+00 0.0000000000000000e+00  3.8055102621641166e-05 -1.2086624351396834e-02 0.0000000000000000e+00  0.0000000000000000e+00 0.0000000000000000e+00 0.0000000000000000e+00  0.0000000000000000e+00 0.0000000000000000e+00 0.0000000000000000e+00  8.2777390193909664e-05 -1.6595230230350266e-02 0.0000000000000000e+00  6.2287568016148597e-05 -1.7187299382064064e-02 0.0000000000000000e+00  0.0000000000000000e+00 0.0000000000000000e+00 0.0000000000000000e+00  3.8239713404386832e-05 -1.1774451776916698e-02 0.0000000000000000e+00  0.0000000000000000e+00 0.0000000000000000e+00 0.0000000000000000e+00  0.0000000000000000e+00 0.0000000000000000e+00 0.0000000000000000e+00  8.3032740141072278e-05 -1.6484983746447541e-02 0.0000000000000000e+00  6.5539989024490368e-05 -1.7078552514150781e-02 0.0000000000000000e+00  0.0000000000000000e+00 0.0000000000000000e+00 0.0000000000000000e+00  1.5326514879567410e-05 -1.2375240685390396e-02 0.0000000000000000e+00  0.0000000000000000e+00 0.0000000000000000e+00 0.0000000000000000e+00  0.0000000000000000e+00 0.0000000000000000e+00 0.0000000000000000e+00  1.9501057762569771e-05 -1.6565349603133141e-02 0.0000000000000000e+00  3.2601427943661351e-05 -1.7131321686150593e-02 0.0000000000000000e+00  0.0000000000000000e+00 0.0000000000000000e+00 0.0000000000000000e+00  2.8005170995903178e-05 -1.2155801657489943e-02 0.0000000000000000e+00  6.7831561897888754e-05 -1.6300002156468332e-02 0.0000000000000000e+00  5.3922719947531113e-05 -1.6869037627742910e-02 0.0000000000000000e+00  0.0000000000000000e+00 0.0000000000000000e+00 0.0000000000000000e+00  0.0000000000000000e+00 0.0000000000000000e+00 0.0000000000000000e+00  0.0000000000000000e+00 0.0000000000000000e+00 0.0000000000000000e+00  3.5179567745343607e-05 -1.2134957282043689e-02 0.0000000000000000e+00  0.0000000000000000e+00 0.0000000000000000e+00 0.0000000000000000e+00  0.0000000000000000e+00 0.0000000000000000e+00 0.0000000000000000e+00  5.2564942637791500e-05 -1.6466995807457651e-02 0.0000000000000000e+00  5.2135428213127962e-05 -1.6920695928264760e-02 0.0000000000000000e+00  0.0000000000000000e+00 0.0000000000000000e+00 0.0000000000000000e+00  3.1552870374326870e-05 -1.1681972814059275e-02 0.0000000000000000e+00  1.8680575873121213e-05 -1.6423762621454091e-02 0.0000000000000000e+00  3.5978698774416951e-05 -1.7005613115799689e-02 0.0000000000000000e+00  0.0000000000000000e+00 0.0000000000000000e+00 0.0000000000000000e+00  0.0000000000000000e+00 0.0000000000000000e+00 0.0000000000000000e+00  0.0000000000000000e+00 0.0000000000000000e+00 0.0000000000000000e+00  2.8336057858949278e-05 -1.1891625559353480e-02 0.0000000000000000e+00  0.0000000000000000e+00 0.0000000000000000e+00 0.0000000000000000e+00  0.0000000000000000e+00 0.0000000000000000e+00 0.0000000000000000e+00  1.8472067661486774e-05 -1.6618148396393626e-02 0.0000000000000000e+00  3.3050942519658305e-05 -1.7043970766582518e-02 0.0000000000000000e+00  0.0000000000000000e+00 0.0000000000000000e+00 0.0000000000000000e+00  5.1005449009126962e-05 -1.2594338306380742e-02 0.0000000000000000e+00  3.3463971177582786e-05 -1.6356888093425500e-02 0.0000000000000000e+00  5.4246688738320765e-05 -1.6891774596784821e-02 0.0000000000000000e+00  0.0000000000000000e+00 0.0000000000000000e+00 0.0000000000000000e+00  0.0000000000000000e+00 0.0000000000000000e+00 0.0000000000000000e+00  0.0000000000000000e+00 0.0000000000000000e+00 0.0000000000000000e+00  2.0158362961450726e-05 -1.2603356731420117e-02 0.0000000000000000e+00  5.2704671181666102e-05 -1.6356487748819631e-02 0.0000000000000000e+00  3.9670805858068621e-05 -1.6884438797467427e-02 0.0000000000000000e+00  0.0000000000000000e+00 0.0000000000000000e+00 0.0000000000000000e+00  0.0000000000000000e+00 0.0000000000000000e+00 0.0000000000000000e+00  7.2776710767404686e-05 -1.7479101954531728e-02 0.0000000000000000e+00  8.1172186033874640e-05 -1.7493745390658684e-02 0.0000000000000000e+00  7.1828280838462814e-05 -1.7493421671437800e-02 0.0000000000000000e+00  6.8188833181691126e-05 -1.7492917537949470e-02 0.0000000000000000e+00  7.6364430612493894e-05 -1.7492435647324788e-02 0.0000000000000000e+00  7.0697783261291686e-05 -1.7433709000232379e-02 0.0000000000000000e+00  9.3845009767656566e-05 -1.7408771702811344e-02 0.0000000000000000e+00  8.7286636276696374e-05 -1.7404863940658887e-02 0.0000000000000000e+00  9.4728745087840687e-05 -1.7428355840572833e-02 0.0000000000000000e+00  9.2436248121308351e-05 -1.7422275098680901e-02 0.0000000000000000e+00  8.6095941254440961e-05 -1.7420395539164052e-02 0.0000000000000000e+00  7.4140201141519393e-05 -1.7354955918289203e-02 0.0000000000000000e+00  7.9363372014420929e-05 -1.7445365858583372e-02 0.0000000000000000e+00  6.9841153131345099e-05 -1.7453712206100893e-02 0.0000000000000000e+00  7.1938011227297779e-05 -1.7461982165492797e-02 0.0000000000000000e+00  6.4061645691750212e-05 -1.7468295257832053e-02 0.0000000000000000e+00  7.5134033754242188e-05 -1.7450394285522450e-02 0.0000000000000000e+00  6.6197984783622057e-05 -1.7378973290057532e-02 0.0000000000000000e+00  7.7463584626963445e-05 -1.7785537102798003e-02 0.0000000000000000e+00  6.9411465835990933e-05 -1.7798763616743429e-02 0.0000000000000000e+00  7.3674252970695457e-05 -1.7804883833292869e-02 0.0000000000000000e+00  7.3951491963192864e-05 -1.7809302818465024e-02 0.0000000000000000e+00  7.0772690053654198e-05 -1.7798409438338124e-02 0.0000000000000000e+00  6.0595578370530354e-05 -1.7735297096266363e-02 0.0000000000000000e+00  6.6506466121907378e-05 -1.7587585054733450e-02 0.0000000000000000e+00  8.1546051761761389e-05 -1.7578915923906015e-02 0.0000000000000000e+00  6.7575756889181338e-05 -1.7605793272003057e-02 0.0000000000000000e+00  6.5641610862752597e-05 -1.7591944879488456e-02 0.0000000000000000e+00  7.4586126669951323e-05 -1.7596144526354458e-02 0.0000000000000000e+00  7.3551408592821118e-05 -1.7527871789158381e-02 0.0000000000000000e+00  8.6300278247537367e-05 -1.7825559646824692e-02 0.0000000000000000e+00  7.8891741425374099e-05 -1.7822215676212439e-02 0.0000000000000000e+00  8.2825229105379424e-05 -1.7832543340998562e-02 0.0000000000000000e+00  7.9226768371588852e-05 -1.7827846276894266e-02 0.0000000000000000e+00  8.0386144653137490e-05 -1.7826848803397303e-02 0.0000000000000000e+00  8.0407548400381480e-05 -1.7763295948393400e-02 0.0000000000000000e+00  8.5422043480700306e-05 -1.7769578230607437e-02 0.0000000000000000e+00  7.9635487475682751e-05 -1.7771791969194956e-02 0.0000000000000000e+00  8.0122844635689003e-05 -1.7777874411080481e-02 0.0000000000000000e+00  7.7575291915084785e-05 -1.7774228142920723e-02 0.0000000000000000e+00  8.5035423081308799e-05 -1.7777045026381715e-02 0.0000000000000000e+00  8.9066178464463982e-05 -1.7707796226813410e-02 0.0000000000000000e+00  7.6457970581757370e-05 -1.7733334916867901e-02 0.0000000000000000e+00  7.0678417428002635e-05 -1.7747418764359892e-02 0.0000000000000000e+00  7.3611944865525634e-05 -1.7753051514994313e-02 0.0000000000000000e+00  7.4655513287237999e-05 -1.7757636221126322e-02 0.0000000000000000e+00  7.0874418615220517e-05 -1.7744962317220048e-02 0.0000000000000000e+00  6.2429327855718466e-05 -1.7677363981634806e-02 0.0000000000000000e+00  8.9223165650522429e-05 -1.7710251833064874e-02 0.0000000000000000e+00  8.2655614753740725e-05 -1.7705596433942771e-02 0.0000000000000000e+00  8.9889612752561520e-05 -1.7728775268030936e-02 0.0000000000000000e+00  8.7470912874610296e-05 -1.7721957771640456e-02 0.0000000000000000e+00  8.1348162750913733e-05 -1.7722263008546305e-02 0.0000000000000000e+00  6.9664707018874601e-05 -1.7656943343013466e-02 0.0000000000000000e+00  1.0180374090316926e-04 -1.7675291318286265e-02 0.0000000000000000e+00  8.1455944376831562e-05 -1.7679893749875483e-02 0.0000000000000000e+00  9.3299951721117160e-05 -1.7698980330581118e-02 0.0000000000000000e+00  7.8267489063680451e-05 -1.7685074194133388e-02 0.0000000000000000e+00  9.1658684969854541e-05 -1.7698266797879177e-02 0.0000000000000000e+00  9.1015430548424937e-05 -1.7631682576227225e-02 0.0000000000000000e+00  9.5644504913563712e-05 -1.7613390051419139e-02 0.0000000000000000e+00  8.1266307974832896e-05 -1.7627497977502335e-02 0.0000000000000000e+00  9.0706326965392148e-05 -1.7631415107163158e-02 0.0000000000000000e+00  7.9268063143827990e-05 -1.7622438614814624e-02 0.0000000000000000e+00  8.3349047171849330e-05 -1.7629289010747878e-02 0.0000000000000000e+00  7.9767209260102746e-05 -1.7569184153908155e-02 0.0000000000000000e+00  6.0051385197640113e-05 -1.6576978115915738e-02 0.0000000000000000e+00  8.0426281305144603e-05 -1.7524990134597820e-02 0.0000000000000000e+00  9.2584152395903493e-05 -1.6777476339667793e-02 0.0000000000000000e+00  5.8521193953194574e-05 -1.1912370446887361e-02 0.0000000000000000e+00  0.0000000000000000e+00 0.0000000000000000e+00 0.0000000000000000e+00  6.2440430797890570e-05 -1.6514156653372126e-02 0.0000000000000000e+00  7.2244660056741558e-05 -1.7452244950926812e-02 0.0000000000000000e+00  7.6423376457313751e-05 -1.6711064302607482e-02 0.0000000000000000e+00  5.0979366424558638e-05 -1.1830616754636756e-02 0.0000000000000000e+00  0.0000000000000000e+00 0.0000000000000000e+00 0.0000000000000000e+00  6.6429098691133293e-05 -1.6615790508730043e-02 0.0000000000000000e+00  6.0568509188610364e-05 -1.7538873305288027e-02 0.0000000000000000e+00  4.6078988721629520e-05 -1.6896081642296959e-02 0.0000000000000000e+00  2.6262580170217651e-05 -1.1809535860766553e-02 0.0000000000000000e+00  0.0000000000000000e+00 0.0000000000000000e+00 0.0000000000000000e+00  8.3020743108069966e-05 -1.6473624960942002e-02 0.0000000000000000e+00  1.1321952373990491e-04 -1.7408437273988796e-02 0.0000000000000000e+00  4.8946492726450754e-05 -1.6722756320261965e-02 0.0000000000000000e+00  3.6197087315350845e-05 -1.1851251730434689e-02 0.0000000000000000e+00  0.0000000000000000e+00 0.0000000000000000e+00 0.0000000000000000e+00  6.5114814697857760e-05 -1.6630177581098297e-02 0.0000000000000000e+00  6.0090819106956229e-05 -1.7563039234525450e-02 0.0000000000000000e+00  4.7881043325636750e-05 -1.6820927212585893e-02 0.0000000000000000e+00  3.5899402884236887e-05 -1.1942542324043586e-02 0.0000000000000000e+00  0.0000000000000000e+00 0.0000000000000000e+00 0.0000000000000000e+00  6.9399368458906944e-05 -1.6651718194254088e-02 0.0000000000000000e+00  8.3074820453671498e-05 -1.7592787694522390e-02 0.0000000000000000e+00  9.3395627940011183e-05 -1.6842574403847909e-02 0.0000000000000000e+00  6.1908595991272858e-05 -1.1981181327387552e-02 0.0000000000000000e+00  0.0000000000000000e+00 0.0000000000000000e+00 0.0000000000000000e+00  6.9248516847309456e-05 -1.6721175849300499e-02 0.0000000000000000e+00  7.8745673358970937e-05 -1.7635706017728184e-02 0.0000000000000000e+00  8.6109976678834960e-05 -1.6997059394510270e-02 0.0000000000000000e+00  6.4687760080171775e-05 -1.1914671573114868e-02 0.0000000000000000e+00  0.0000000000000000e+00 0.0000000000000000e+00 0.0000000000000000e+00  5.6936371637539222e-05 -1.6701577973427136e-02 0.0000000000000000e+00  5.2112420438471390e-05 -1.7612752496342986e-02 0.0000000000000000e+00  4.0168701650168216e-05 -1.6964914108260034e-02 0.0000000000000000e+00  2.2103145372037719e-05 -1.1885140649389381e-02 0.0000000000000000e+00  0.0000000000000000e+00 0.0000000000000000e+00 0.0000000000000000e+00  6.6936225184342158e-05 -1.6320237542792024e-02 0.0000000000000000e+00  6.2746495854153512e-05 -1.7259472999364100e-02 0.0000000000000000e+00  5.1738021102614412e-05 -1.6531161642892356e-02 0.0000000000000000e+00  3.7315487901347908e-05 -1.1639374380517684e-02 0.0000000000000000e+00  0.0000000000000000e+00 0.0000000000000000e+00 0.0000000000000000e+00  6.9888964241559000e-05 -1.6306567505829490e-02 0.0000000000000000e+00  6.5033338009133933e-05 -1.7233897745991617e-02 0.0000000000000000e+00  5.1035773806825150e-05 -1.6602977003810502e-02 0.0000000000000000e+00  2.9785496642976195e-05 -1.1508628624309436e-02 0.0000000000000000e+00  0.0000000000000000e+00 0.0000000000000000e+00 0.0000000000000000e+00  8.0156803529834585e-05 -1.6374416421944978e-02 0.0000000000000000e+00  1.1029322379641840e-04 -1.7311357260027051e-02 0.0000000000000000e+00  3.8529604573127173e-05 -1.6625894212744425e-02 0.0000000000000000e+00  3.4265352301550229e-05 -1.1749356469987858e-02 0.0000000000000000e+00  0.0000000000000000e+00 0.0000000000000000e+00 0.0000000000000000e+00  8.7017607192750720e-05 -1.6603798462416174e-02 0.0000000000000000e+00  1.1940647555174726e-04 -1.7491206172532768e-02 0.0000000000000000e+00  7.3896046332230274e-05 -1.6679929950647803e-02 0.0000000000000000e+00  8.5996783228159488e-05 -1.7586834609850364e-02 0.0000000000000000e+00  5.3001242433345930e-05 -1.1827048278636978e-02 0.0000000000000000e+00  0.0000000000000000e+00 0.0000000000000000e+00 0.0000000000000000e+00  6.8082375003104080e-05 -1.6338704464544839e-02 0.0000000000000000e+00  8.4335030232521779e-05 -1.7225654747003775e-02 0.0000000000000000e+00  9.3362473228179575e-05 -1.6482220994836941e-02 0.0000000000000000e+00  8.9411879746822268e-05 -1.7320268648377730e-02 0.0000000000000000e+00  5.8659516405397423e-05 -1.1645488577861417e-02 0.0000000000000000e+00  0.0000000000000000e+00 0.0000000000000000e+00 0.0000000000000000e+00  8.4124491404833555e-05 -1.6482274795644361e-02 0.0000000000000000e+00  1.0330370205337999e-04 -1.7349833693391586e-02 0.0000000000000000e+00  2.8263581877531866e-05 -1.6660331548054394e-02 0.0000000000000000e+00  6.6145218817435482e-05 -1.7452272833813860e-02 0.0000000000000000e+00  3.4971986236068162e-05 -1.1840792043087375e-02 0.0000000000000000e+00  0.0000000000000000e+00 0.0000000000000000e+00 0.0000000000000000e+00  1.0112630130081768e-04 -1.6525285802946373e-02 0.0000000000000000e+00  1.3518540564199069e-04 -1.7383053486011237e-02 0.0000000000000000e+00  8.2114211851354730e-05 -1.6698948854568713e-02 0.0000000000000000e+00  9.4259542610595094e-05 -1.7491740667821686e-02 0.0000000000000000e+00  6.6937744119682159e-05 -1.1603176744712786e-02 0.0000000000000000e+00  0.0000000000000000e+00 0.0000000000000000e+00 0.0000000000000000e+00  7.7802105460911622e-05 -1.6669696817124206e-02 0.0000000000000000e+00  9.1130752692836407e-05 -1.7326423520537995e-02 0.0000000000000000e+00  9.7653349602130782e-05 -1.6054672519192827e-02 0.0000000000000000e+00  1.5105971242677477e-05 -1.6804406046113465e-02 0.0000000000000000e+00  4.0440677350306865e-05 -1.7457650563505313e-02 0.0000000000000000e+00  -4.3187422884492999e-05 -1.6195188949410841e-02 0.0000000000000000e+00  7.1904579104638681e-05 -1.7400745740516914e-02 0.0000000000000000e+00  -2.0303098969230576e-05 -1.1198096752074220e-02 0.0000000000000000e+00  3.3832174578879846e-05 -1.7088653824655995e-02 0.0000000000000000e+00  6.7616879289959160e-05 -1.7577527939693555e-02 0.0000000000000000e+00  9.0378017503071527e-06 -1.6397645542400117e-02 0.0000000000000000e+00  7.0591305270139247e-05 -1.7014843107284121e-02 0.0000000000000000e+00  7.4761733273100522e-05 -1.7557413941858793e-02 0.0000000000000000e+00  7.8352120000857719e-05 -1.6379598590162123e-02 0.0000000000000000e+00  8.3614314502986672e-05 -1.7563841372474659e-02 0.0000000000000000e+00  9.8513928268103955e-05 -1.7542384982864000e-02 0.0000000000000000e+00  8.5970096475140558e-05 -1.7563073034082971e-02 0.0000000000000000e+00  8.5347977438285984e-05 -1.7565728832928319e-02 0.0000000000000000e+00  7.8020668448516010e-05 -1.7547008490633651e-02 0.0000000000000000e+00  8.4884531018984653e-05 -1.7369523790849550e-02 0.0000000000000000e+00  7.7778610734371550e-05 -1.7353328770378526e-02 0.0000000000000000e+00  8.7801522106450381e-05 -1.7388873315969351e-02 0.0000000000000000e+00  9.0484843405011855e-05 -1.7386454475383548e-02 0.0000000000000000e+00  8.9946408139628508e-05 -1.7361439271267820e-02 0.0000000000000000e+00  7.3856870128010896e-05 -1.7524673511210464e-02 0.0000000000000000e+00  8.8686865740265797e-05 -1.7503002335707833e-02 0.0000000000000000e+00  7.2009076084597140e-05 -1.7525744379496458e-02 0.0000000000000000e+00  7.3544364921312175e-05 -1.7531006502317731e-02 0.0000000000000000e+00  6.5120923325766268e-05 -1.7517651121416133e-02 0.0000000000000000e+00  7.5752628539107835e-05 -1.7661067661912971e-02 0.0000000000000000e+00  8.8939707992588868e-05 -1.7644495016605796e-02 0.0000000000000000e+00  7.7388357939761081e-05 -1.7660273821133544e-02 0.0000000000000000e+00  7.7272171323332380e-05 -1.7661724732575889e-02 0.0000000000000000e+00  6.8450301115265274e-05 -1.7634717356682376e-02 0.0000000000000000e+00  7.5703698403635546e-05 -1.6973518353867886e-02 0.0000000000000000e+00  9.0812628798976616e-05 -1.7632545999213087e-02 0.0000000000000000e+00  9.8114135310292636e-05 -1.6362349288159630e-02 0.0000000000000000e+00  6.2799409485000073e-05 -1.7572394943163098e-02 0.0000000000000000e+00  4.0308015239431151e-05 -1.1338064922286352e-02 0.0000000000000000e+00  7.2432868523004181e-05 -1.7047620117955267e-02 0.0000000000000000e+00  8.8327876994989023e-05 -1.7704126328150081e-02 0.0000000000000000e+00  9.7534146642407464e-05 -1.6431254386519541e-02 0.0000000000000000e+00  6.9102655405021613e-05 -1.7209675250339802e-02 0.0000000000000000e+00  7.7428463186019804e-05 -1.7690386925990079e-02 0.0000000000000000e+00  4.7201541943444613e-05 -1.1547358343185876e-02 0.0000000000000000e+00  5.6677035271639897e-05 -1.7646194913527494e-02 0.0000000000000000e+00  3.8377836527154277e-05 -1.1401083282926090e-02 0.0000000000000000e+00  6.6662755228043806e-05 -1.7267335925067177e-02 0.0000000000000000e+00  4.2542398741573878e-05 -1.1074528456896016e-02 0.0000000000000000e+00  5.3042054338272154e-06 -1.6861938829455622e-02 0.0000000000000000e+00  4.9402373146674860e-05 -1.7437547453265808e-02 0.0000000000000000e+00  -3.0848507992022362e-05 -1.6182357525680917e-02 0.0000000000000000e+00  6.6427095814668692e-05 -1.7653912021884301e-02 0.0000000000000000e+00  7.3522042466414193e-05 -1.7663733125623006e-02 0.0000000000000000e+00  6.9184725949544354e-05 -1.7659242652696524e-02 0.0000000000000000e+00  8.8135637935531002e-05 -1.7399131595823628e-02 0.0000000000000000e+00  8.9829932323103712e-05 -1.7403328504009687e-02 0.0000000000000000e+00  8.7251744291946579e-05 -1.7396545891748414e-02 0.0000000000000000e+00  6.1517997101832796e-05 -1.7533164502896922e-02 0.0000000000000000e+00  6.0930534494102164e-05 -1.7532221285579835e-02 0.0000000000000000e+00  6.6229164412134873e-05 -1.7534907164903021e-02 0.0000000000000000e+00  7.4566069218469421e-05 -1.7559360771783158e-02 0.0000000000000000e+00  8.0197636626398657e-05 -1.7562746368738755e-02 0.0000000000000000e+00  7.8952807749529751e-05 -1.7563039008755384e-02 0.0000000000000000e+00  1.5836938813673718e-05 -1.6994455558657435e-02 0.0000000000000000e+00  5.4541146212583977e-05 -1.7526803006030513e-02 0.0000000000000000e+00  -2.7679071832296568e-05 -1.6325599508417495e-02 0.0000000000000000e+00  7.4671197521087597e-05 -1.7429902194702813e-02 0.0000000000000000e+00  8.8397570005555222e-05 -1.7415795719403649e-02 0.0000000000000000e+00  7.5592365941374876e-05 -1.7497398722197393e-02 0.0000000000000000e+00  8.9037922709605996e-05 -1.6961816918241831e-02 0.0000000000000000e+00  8.0961108912292108e-05 -1.7321334483386505e-02 0.0000000000000000e+00  9.0236324027665954e-05 -1.7405034343141668e-02 0.0000000000000000e+00  6.8658829598037299e-05 -1.7394357596488070e-02 0.0000000000000000e+00  6.8592076104140578e-05 -1.7366971902537373e-02 0.0000000000000000e+00  6.7351828715347037e-05 -1.7456780609245767e-02 0.000