<?xml version="1.0"?>
<VTKFile type="UnstructuredGrid"  version="0.1"  >
<UnstructuredGrid>
<Piece  NumberOfPoints="2530" NumberOfCells="4544">
<Points>
<DataArray  type="Float64"  NumberOfComponents="3"  format="ascii">-0.005 0.02899999999991747 0  -0.005567606561449265 0.02972952735170602 0  -0.005567606561449265 0.02922952735170672 0  -0.006135213122898529 0.02945905470349596 0  -0.005 0.02949999999991678 0  -0.005 0.02999999999991609 0  -0.008999999999999999 0.02999999999991609 0  -0.008477881325601233 0.02929081058473642 0  -0.008999999999999999 0.02949999999991678 0  -0.008999999999999999 0.02899999999991747 0  -0.008477881325601233 0.02979081058473573 0  -0.007955762651202469 0.02958162116955536 0  -0.008999999999999999 0.05699999999999127 0  -0.008455575182696982 0.05771508614433647 0  -0.008455575182696982 0.05721508614433456 0  -0.007911150365393967 0.05743017228867785 0  -0.008999999999999999 0.05749999999999318 0  -0.008999999999999999 0.05799999999999508 0  -0.006562500000003323 0.04699999999996404 0  -0.007410380031513026 0.04710817040743875 0  -0.006801005031513838 0.04733733707410809 0  -0.007039510063024354 0.04767467414825214 0  -0.007171875000002511 0.0467708333332947 0  -0.007781250000001699 0.04654166666662536 0  -0.006562499999996975 0.007999999999982715 0  -0.007410380031513406 0.007891829592506899 0  -0.006801005031512716 0.007662662925842622 0  -0.007039510063028456 0.007325325851702528 0  -0.007171874999997664 0.008229166666646992 0  -0.007781249999998355 0.008458333333311269 0  -0.006562499999996577 0.01099999999997411 0  -0.007410380031513544 0.01110817040744999 0  -0.006801005031512696 0.01133733707411394 0  -0.007039510063028815 0.01167467414825377 0  -0.007171874999997425 0.01077083333331016 0  -0.007781249999998272 0.01054166666664622 0  -0.005 0.02399999999993442 0  -0.005590674212597458 0.02326230314954376 0  -0.005 0.02349999999993588 0  -0.005 0.02299999999993733 0  -0.005590674212597458 0.02376230314954231 0  -0.006181348425194916 0.0235246062991502 0  -0.005 0.02099999999994222 0  -0.005564630812322937 0.0217315610722294 0  -0.005564630812322937 0.02123156107223086 0  -0.006129261624645875 0.0214631221445195 0  -0.005 0.02149999999994076 0  -0.005 0.0219999999999393 0  -0.008999999999999999 0.01999999999994686 0  -0.008409325787402531 0.01926230314955595 0  -0.008999999999999999 0.01949999999994807 0  -0.008999999999999999 0.01899999999994928 0  -0.008409325787402531 0.01976230314955475 0  -0.007818651574805061 0.01952460629916263 0  -0.008999999999999999 0.02499999999992978 0  -0.008409325787402541 0.02573769685032071 0  -0.008409325787402541 0.02523769685032191 0  -0.007818651574805081 0.02547539370071405 0  -0.008999999999999999 0.02549999999992857 0  -0.008999999999999999 0.02599999999992736 0  -0.008999999999999999 0.01599999999995916 0  -0.008409325787402512 0.01526230314956849 0  -0.008999999999999999 0.01549999999996053 0  -0.008999999999999999 0.0149999999999619 0  -0.008409325787402512 0.01576230314956713 0  -0.007818651574805024 0.01552460629917509 0  -0.008999999999999999 0.01799999999995125 0  -0.008435915727826615 0.01725427993967504 0  -0.008999999999999999 0.01749999999995307 0  -0.008999999999999999 0.01699999999995488 0  -0.008435915727826615 0.01775427993967323 0  -0.007871831455653231 0.0175085598793952 0  -0.008999999999999999 0.02699999999992539 0  -0.008434239959724898 0.02774706184850321 0  -0.008434239959724898 0.02724706184850503 0  -0.007868479919449797 0.02749412369708466 0  -0.008999999999999999 0.02749999999992357 0  -0.008999999999999999 0.02799999999992175 0  -0.008999999999999999 0.01399999999996497 0  -0.008437765310767197 0.0132645357198448 0  -0.008999999999999999 0.01349999999996647 0  -0.008999999999999999 0.01299999999996796 0  -0.008437765310767197 0.0137645357198433 0  -0.007875530621534396 0.01352907143972163 0  -0.005 0.002999999999993196 0  -0.005590674212597853 0.003737696850384681 0  -0.005590674212597853 0.003237696850385873 0  -0.006181348425195706 0.00347539370077855 0  -0.005 0.003499999999992004 0  -0.005 0.003999999999990813 0  -0.005 0.004999999999989164 0  -0.005559084057905018 0.005728935712846076 0  -0.005559084057905018 0.005228935712846881 0  -0.006118168115810037 0.005457871425704597 0  -0.005 0.00549999999998836 0  -0.005 0.005999999999987554 0  -0.005 0.05299999999997999 0  -0.005590674212599118 0.05373769685037712 0  -0.005590674212599118 0.05323769685037585 0  -0.006181348425198237 0.05347539370077171 0  -0.005 0.05349999999998126 0  -0.005 0.05399999999998254 0  -0.008999999999999999 0.05199999999997907 0  -0.008409325787400907 0.05126230314958195 0  -0.008999999999999999 0.0514999999999778 0  -0.008999999999999999 0.05099999999997653 0  -0.008409325787400907 0.05176230314958322 0  -0.007818651574801817 0.05152460629918738 0  -0.005 0.03699999999993814 0  -0.005590674212599064 0.03626230314954104 0  -0.005 0.03649999999993686 0  -0.005 0.03599999999993558 0  -0.005590674212599064 0.03676230314954232 0  -0.006181348425198127 0.03652460629914649 0  -0.005 0.03799999999993905 0  -0.005590674212599059 0.03873769685033618 0  -0.005590674212599059 0.0382376968503349 0  -0.006181348425198119 0.03847539370073075 0  -0.005 0.03849999999994033 0  -0.005 0.0389999999999416 0  -0.008999999999999999 0.04499999999995907 0  -0.008409325787400921 0.04426230314956281 0  -0.008999999999999999 0.04449999999995852 0  -0.008999999999999999 0.04399999999995796 0  -0.008409325787400921 0.04476230314956336 0  -0.007818651574801844 0.04452460629916766 0  -0.005 0.05499999999998635 0  -0.005561924071815199 0.05574035198473451 0  -0.005561924071815199 0.05524035198473292 0  -0.006123848143630398 0.05548070396947949 0  -0.005 0.05549999999998795 0  -0.005 0.05599999999998954 0  -0.008999999999999999 0.04999999999997271 0  -0.008437330811979935 0.04925705943891855 0  -0.008999999999999999 0.04949999999997112 0  -0.008999999999999999 0.04899999999996952 0  -0.008437330811979935 0.04975705943892015 0  -0.00787466162395987 0.04951411887786759 0  -0.005 0.03499999999993177 0  -0.005554118008684467 0.03427588870688815 0  -0.005 0.03449999999993018 0  -0.005 0.03399999999992859 0  -0.005554118008684467 0.03477588870688975 0  -0.006108236017368934 0.03455177741384772 0  -0.005 0.03999999999994542 0  -0.005565787062146483 0.04074708348495108 0  -0.005565787062146483 0.0402470834849495 0  -0.006131574124292967 0.04049416696995358 0  -0.005 0.04049999999994701 0  -0.005 0.04099999999994859 0  -0.008999999999999999 0.04299999999995415 0  -0.008434212937853522 0.04225291651494782 0  -0.008999999999999999 0.04249999999995224 0  -0.008999999999999999 0.04199999999995033 0  -0.008434212937853522 0.04275291651494972 0  -0.007868425875707045 0.0425058330299453 0  -0.008249816699198017 0.05835749671693449 0  -0.008080483532295991 0.05789383450280617 0  -0.008624908349599008 0.05817874835846479 0  -0.005 0.05699999999999127 0  -0.005564814814815426 0.05763425925925437 0  -0.005564814814815426 0.05713425925925246 0  -0.006129629629630853 0.05726851851851365 0  -0.005 0.05749999999999318 0  -0.005 0.05799999999999508 0  -0.007812500000000279 0.05881250000000175 0  -0.007487215909092686 0.05955539772727215 0  -0.007906250000003019 0.05940625000000088 0  -0.008000000000005759 0.06 0  -0.007393465909089946 0.05896164772727303 0  -0.006974431818179612 0.0591107954545443 0  -0.008269129548671622 0.01109390078343537 0  -0.008025189774334947 0.0108177837250408 0  -0.008390624999999135 0.01027083333331175 0  -0.008634564774335812 0.01054695039170632 0  -0.008999999999999999 0.009999999999977279 0  -0.008269129548671525 0.007906099216521786 0  -0.00802518977433494 0.008182216274916528 0  -0.008390624999999177 0.008729166666645676 0  -0.008634564774335763 0.008453049608250935 0  -0.008999999999999999 0.008999999999980083 0  -0.008269129548669827 0.04709390078342088 0  -0.008025189774335762 0.04681778372502312 0  -0.008390625000000849 0.04627083333329277 0  -0.008634564774334913 0.04654695039169052 0  -0.008999999999999999 0.04599999999996016 0  -0.008273872863797757 0.03191632356681653 0  -0.008025109529492163 0.03218405924682916 0  -0.008388173097593283 0.03272589746338432 0  -0.007776346195186568 0.03245179492684179 0  -0.008636936431898879 0.03245816178337169 0  -0.008999999999999999 0.03299999999992685 0  -0.008017414784897241 0.03353452586113938 0  -0.007896880490041905 0.03299316039399058 0  -0.00850870739244862 0.03326726293053311 0  -0.007057671392325 0.03137590312127503 0  -0.007417008793755784 0.03191384902405841 0  -0.007160048097594804 0.03223839746338272 0  -0.00680071069616402 0.03170045156059935 0  -0.006543750000003041 0.03202499999992366 0  -0.007883928571428122 0.00949999999997868 0  -0.007832589285713197 0.01002083333331245 0  -0.00844196428571406 0.009749999999977979 0  -0.007832589285713239 0.008979166666644976 0  -0.00844196428571406 0.009249999999979382 0  -0.007040819314031163 0.03285586844587998 0  -0.007408582754608865 0.03265383168636089 0  -0.006792284657017102 0.03244043422290183 0  -0.005872353521460591 0.05810919245179558 0  -0.006000991575545722 0.05768885548515462 0  -0.005436176760730296 0.05805459622589533 0  -0.00786502184884123 0.04771008739533377 0  -0.007823135924421465 0.04712587703097956 0  -0.007452265955932792 0.04769238077179296 0  -0.007865021848844505 0.007289912604609198 0  -0.00782313592442143 0.007874122968960234 0  -0.007452265955936481 0.007307619228155863 0  -0.007865021848844829 0.01171008739534793 0  -0.007823135924421552 0.01112587703099708 0  -0.007452265955936822 0.01169238077180085 0  -0.008184288543895116 0.02249999999993832 0  -0.007988733012405148 0.02298711832054615 0  -0.007383909739089816 0.02298711832054615 0  -0.007793177480915178 0.02347423664115397 0  -0.007579465270579786 0.02249999999993833 0  -0.006974641997264455 0.02249999999993833 0  -0.007988733012405137 0.02201288167933051 0  -0.007383909739089808 0.02201288167933051 0  -0.007793177480915159 0.02152576335872269 0  -0.005819248789178329 0.02649
[...]
<PointData  Vectors="f_23"> 
<DataArray  type="Float64"  Name="f_23"  NumberOfComponents="3" format="ascii">0.0000000000000000e+00 0.0000000000000000e+00 0.0000000000000000e+00  1.0276307630990733e-09 -3.7157171763093455e-03 0.0000000000000000e+00  1.9565435188670979e-09 -5.4079708459501517e-03 0.0000000000000000e+00  1.1861010273407582e-09 -5.5836341325093400e-03 0.0000000000000000e+00  0.0000000000000000e+00 0.0000000000000000e+00 0.0000000000000000e+00  0.0000000000000000e+00 0.0000000000000000e+00 0.0000000000000000e+00  0.0000000000000000e+00 0.0000000000000000e+00 0.0000000000000000e+00  -1.6453064116457239e-09 -3.8897391452559246e-03 0.0000000000000000e+00  0.0000000000000000e+00 0.0000000000000000e+00 0.0000000000000000e+00  0.0000000000000000e+00 0.0000000000000000e+00 0.0000000000000000e+00  -6.6095869859883014e-11 -5.3589633106195054e-03 0.0000000000000000e+00  -2.1431047774718564e-09 -5.5605277740231112e-03 0.0000000000000000e+00  0.0000000000000000e+00 0.0000000000000000e+00 0.0000000000000000e+00  6.0416272113692889e-09 -3.6962087257734646e-03 0.0000000000000000e+00  -1.9364010297901792e-07 -5.4053492899429042e-03 0.0000000000000000e+00  -2.0399587816220843e-07 -5.5736917835862336e-03 0.0000000000000000e+00  0.0000000000000000e+00 0.0000000000000000e+00 0.0000000000000000e+00  0.0000000000000000e+00 0.0000000000000000e+00 0.0000000000000000e+00  -1.6384719243445295e-09 -5.7595839687986207e-03 0.0000000000000000e+00  -3.2440634996061764e-09 -5.7666581217492392e-03 0.0000000000000000e+00  3.8451745717159636e-09 -5.7679953307939891e-03 0.0000000000000000e+00  6.5162092825592094e-09 -5.7675792188065919e-03 0.0000000000000000e+00  -6.0805661907648319e-09 -5.7664962293613002e-03 0.0000000000000000e+00  -5.6376221980985493e-09 -5.7391305012424280e-03 0.0000000000000000e+00  1.4662883022578788e-09 -5.7599855667940297e-03 0.0000000000000000e+00  9.1009493577633948e-10 -5.7667849046226629e-03 0.0000000000000000e+00  -2.3238762443234388e-09 -5.7680224085221703e-03 0.0000000000000000e+00  -1.7805306065714312e-09 -5.7677588689144070e-03 0.0000000000000000e+00  4.6089712721207825e-09 -5.7666701255711253e-03 0.0000000000000000e+00  -6.5005941764383375e-10 -5.7377150110280604e-03 0.0000000000000000e+00  -1.6731255121560519e-09 -5.7600447593872976e-03 0.0000000000000000e+00  -5.4755505657411175e-09 -5.7667441179730687e-03 0.0000000000000000e+00  -3.0271147360886987e-09 -5.7680362532154710e-03 0.0000000000000000e+00  -3.4647552628876916e-09 -5.7675686937530930e-03 0.0000000000000000e+00  -3.3655643713915572e-09 -5.7670221540379301e-03 0.0000000000000000e+00  -7.5134855192817522e-09 -5.7417893805369151e-03 0.0000000000000000e+00  0.0000000000000000e+00 0.0000000000000000e+00 0.0000000000000000e+00  2.3769763747951974e-09 -3.8381650339996470e-03 0.0000000000000000e+00  0.0000000000000000e+00 0.0000000000000000e+00 0.0000000000000000e+00  0.0000000000000000e+00 0.0000000000000000e+00 0.0000000000000000e+00  4.8869285699790676e-09 -5.4134679236561272e-03 0.0000000000000000e+00  2.7300307924843203e-09 -5.5754399740285798e-03 0.0000000000000000e+00  0.0000000000000000e+00 0.0000000000000000e+00 0.0000000000000000e+00  3.4050465657930861e-09 -3.8854731101357859e-03 0.0000000000000000e+00  5.1798379039179198e-09 -5.4123210137973386e-03 0.0000000000000000e+00  6.7037581287676235e-09 -5.5857295288073714e-03 0.0000000000000000e+00  0.0000000000000000e+00 0.0000000000000000e+00 0.0000000000000000e+00  0.0000000000000000e+00 0.0000000000000000e+00 0.0000000000000000e+00  0.0000000000000000e+00 0.0000000000000000e+00 0.0000000000000000e+00  2.1051583934491635e-10 -3.8225222397631725e-03 0.0000000000000000e+00  0.0000000000000000e+00 0.0000000000000000e+00 0.0000000000000000e+00  0.0000000000000000e+00 0.0000000000000000e+00 0.0000000000000000e+00  1.8286588006575931e-09 -5.4129450311783383e-03 0.0000000000000000e+00  5.2794497937292750e-10 -5.5767011478445134e-03 0.0000000000000000e+00  0.0000000000000000e+00 0.0000000000000000e+00 0.0000000000000000e+00  4.0494786390896644e-10 -3.8648236873992177e-03 0.0000000000000000e+00  -2.2501445870499396e-09 -5.4110373586156620e-03 0.0000000000000000e+00  -2.9113832956213370e-09 -5.5793435652428105e-03 0.0000000000000000e+00  0.0000000000000000e+00 0.0000000000000000e+00 0.0000000000000000e+00  0.0000000000000000e+00 0.0000000000000000e+00 0.0000000000000000e+00  0.0000000000000000e+00 0.0000000000000000e+00 0.0000000000000000e+00  4.7051401585875747e-09 -3.8347749908042299e-03 0.0000000000000000e+00  0.0000000000000000e+00 0.0000000000000000e+00 0.0000000000000000e+00  0.0000000000000000e+00 0.0000000000000000e+00 0.0000000000000000e+00  5.3576635632424463e-09 -5.4030541420890333e-03 0.0000000000000000e+00  6.2361093918580080e-09 -5.5680916262046782e-03 0.0000000000000000e+00  0.0000000000000000e+00 0.0000000000000000e+00 0.0000000000000000e+00  3.6058607801695427e-10 -3.8367632905568776e-03 0.0000000000000000e+00  0.0000000000000000e+00 0.0000000000000000e+00 0.0000000000000000e+00  0.0000000000000000e+00 0.0000000000000000e+00 0.0000000000000000e+00  -1.6873883125947916e-09 -5.4050905954081858e-03 0.0000000000000000e+00  -1.0336689652698353e-09 -5.5786426732820620e-03 0.0000000000000000e+00  0.0000000000000000e+00 0.0000000000000000e+00 0.0000000000000000e+00  -2.8356727165404347e-09 -3.9995388548044577e-03 0.0000000000000000e+00  -1.8348243465239152e-09 -5.3709843454044452e-03 0.0000000000000000e+00  -5.4938073592317642e-09 -5.5701500068163993e-03 0.0000000000000000e+00  0.0000000000000000e+00 0.0000000000000000e+00 0.0000000000000000e+00  0.0000000000000000e+00 0.0000000000000000e+00 0.0000000000000000e+00  0.0000000000000000e+00 0.0000000000000000e+00 0.0000000000000000e+00  1.0079199152365874e-09 -3.7488753611818180e-03 0.0000000000000000e+00  0.0000000000000000e+00 0.0000000000000000e+00 0.0000000000000000e+00  0.0000000000000000e+00 0.0000000000000000e+00 0.0000000000000000e+00  4.2795841781950367e-09 -5.3992589466242934e-03 0.0000000000000000e+00  2.9257267271487354e-09 -5.5696757224920034e-03 0.0000000000000000e+00  0.0000000000000000e+00 0.0000000000000000e+00 0.0000000000000000e+00  -4.3166666512351704e-10 -3.8637138193532844e-03 0.0000000000000000e+00  1.4937801525526258e-09 -5.4151089798398899e-03 0.0000000000000000e+00  1.7633396708162776e-10 -5.5800752136424721e-03 0.0000000000000000e+00  0.0000000000000000e+00 0.0000000000000000e+00 0.0000000000000000e+00  0.0000000000000000e+00 0.0000000000000000e+00 0.0000000000000000e+00  0.0000000000000000e+00 0.0000000000000000e+00 0.0000000000000000e+00  -2.3559058925471576e-09 -3.7295453885311668e-03 0.0000000000000000e+00  -3.2031646892114859e-09 -5.3598905156525632e-03 0.0000000000000000e+00  -2.8445472352801349e-09 -5.5556101168657774e-03 0.0000000000000000e+00  0.0000000000000000e+00 0.0000000000000000e+00 0.0000000000000000e+00  0.0000000000000000e+00 0.0000000000000000e+00 0.0000000000000000e+00  0.0000000000000000e+00 0.0000000000000000e+00 0.0000000000000000e+00  5.8180924255759936e-09 -3.8382889419171728e-03 0.0000000000000000e+00  1.4225867993054175e-08 -5.4135691743953523e-03 0.0000000000000000e+00  1.4502166636262327e-08 -5.5760108462216233e-03 0.0000000000000000e+00  0.0000000000000000e+00 0.0000000000000000e+00 0.0000000000000000e+00  0.0000000000000000e+00 0.0000000000000000e+00 0.0000000000000000e+00  0.0000000000000000e+00 0.0000000000000000e+00 0.0000000000000000e+00  8.4492453314608738e-09 -3.8647885706970075e-03 0.0000000000000000e+00  0.0000000000000000e+00 0.0000000000000000e+00 0.0000000000000000e+00  0.0000000000000000e+00 0.0000000000000000e+00 0.0000000000000000e+00  1.7897472608549947e-08 -5.4110584145328757e-03 0.0000000000000000e+00  2.3182897672044020e-08 -5.5794026061535707e-03 0.0000000000000000e+00  0.0000000000000000e+00 0.0000000000000000e+00 0.0000000000000000e+00  2.1220937446420290e-09 -3.8120749888648133e-03 0.0000000000000000e+00  0.0000000000000000e+00 0.0000000000000000e+00 0.0000000000000000e+00  0.0000000000000000e+00 0.0000000000000000e+00 0.0000000000000000e+00  5.0868692991667322e-09 -5.4058723588661433e-03 0.0000000000000000e+00  1.0441568108989295e-09 -5.5701577223807386e-03 0.0000000000000000e+00  0.0000000000000000e+00 0.0000000000000000e+00 0.0000000000000000e+00  7.9787054005329064e-09 -3.8492214175711798e-03 0.0000000000000000e+00  1.2378790879505519e-08 -5.3688943825191699e-03 0.0000000000000000e+00  6.1820586002306436e-09 -5.5606656265934518e-03 0.0000000000000000e+00  0.0000000000000000e+00 0.0000000000000000e+00 0.0000000000000000e+00  0.0000000000000000e+00 0.0000000000000000e+00 0.0000000000000000e+00  0.0000000000000000e+00 0.0000000000000000e+00 0.0000000000000000e+00  -3.2364065881247245e-10 -3.8365915783890527e-03 0.0000000000000000e+00  0.0000000000000000e+00 0.0000000000000000e+00 0.0000000000000000e+00  0.0000000000000000e+00 0.0000000000000000e+00 0.0000000000000000e+00  -7.9999567856849024e-10 -5.4126518729552819e-03 0.0000000000000000e+00  -1.7542784048703412e-09 -5.5717045808492969e-03 0.0000000000000000e+00  0.0000000000000000e+00 0.0000000000000000e+00 0.0000000000000000e+00  1.8550637347737540e-08 -3.7296342847713670e-03 0.0000000000000000e+00  -3.2262528271678688e-08 -5.3995075443254437e-03 0.0000000000000000e+00  -2.3706116950481417e-09 -5.5725749896913335e-03 0.0000000000000000e+00  0.0000000000000000e+00 0.0000000000000000e+00 0.0000000000000000e+00  0.0000000000000000e+00 0.0000000000000000e+00 0.0000000000000000e+00  0.0000000000000000e+00 0.0000000000000000e+00 0.0000000000000000e+00  -2.7649601863014233e-09 -3.8102311168574186e-03 0.0000000000000000e+00  0.0000000000000000e+00 0.0000000000000000e+00 0.0000000000000000e+00  0.0000000000000000e+00 0.0000000000000000e+00 0.0000000000000000e+00  2.8894656365223499e-09 -5.3660181155832246e-03 0.0000000000000000e+00  6.1041823408795693e-09 -5.5621757257944575e-03 0.0000000000000000e+00  0.0000000000000000e+00 0.0000000000000000e+00 0.0000000000000000e+00  2.1359886732834801e-09 -3.5999568920874253e-03 0.0000000000000000e+00  0.0000000000000000e+00 0.0000000000000000e+00 0.0000000000000000e+00  0.0000000000000000e+00 0.0000000000000000e+00 0.0000000000000000e+00  1.4142901880827642e-09 -5.3922932978934957e-03 0.0000000000000000e+00  3.7177482584116453e-09 -5.5637306650252964e-03 0.0000000000000000e+00  0.0000000000000000e+00 0.0000000000000000e+00 0.0000000000000000e+00  2.8630534700597389e-09 -3.9404431190393427e-03 0.0000000000000000e+00  8.6361830121333706e-09 -5.4060493224903248e-03 0.0000000000000000e+00  4.3177095644169717e-09 -5.5863748864865281e-03 0.0000000000000000e+00  0.0000000000000000e+00 0.0000000000000000e+00 0.0000000000000000e+00  0.0000000000000000e+00 0.0000000000000000e+00 0.0000000000000000e+00  0.0000000000000000e+00 0.0000000000000000e+00 0.0000000000000000e+00  -2.2785908429658760e-09 -3.9400296429707698e-03 0.0000000000000000e+00  0.0000000000000000e+00 0.0000000000000000e+00 0.0000000000000000e+00  0.0000000000000000e+00 0.0000000000000000e+00 0.0000000000000000e+00  -9.4852344238182746e-10 -5.4053367397813223e-03 0.0000000000000000e+00  -1.3911534582339349e-09 -5.5836851707866050e-03 0.0000000000000000e+00  1.3906965962207378e-07 -5.3696056273410614e-03 0.0000000000000000e+00  1.7519474558150513e-08 -5.6565288267965644e-03 0.0000000000000000e+00  1.3483568218822731e-07 -3.7524578364618562e-03 0.0000000000000000e+00  0.0000000000000000e+00 0.0000000000000000e+00 0.0000000000000000e+00  2.7642373325275958e-07 -3.6308656723188946e-03 0.0000000000000000e+00  2.5235582840005829e-07 -5.3899964606505292e-03 0.0000000000000000e+00  3.6509458278472896e-07 -5.5502995726200207e-03 0.0000000000000000e+00  0.0000000000000000e+00 0.0000000000000000e+00 0.0000000000000000e+00  0.0000000000000000e+00 0.0000000000000000e+00 0.0000000000000000e+00  1.6305959313299866e-07 -5.7500192160468101e-03 0.0000000000000000e+00  8.9613556151596625e-08 -5.7671333358562064e-03 0.0000000000000000e+00  -2.3815323730718931e-08 -5.7396293048357491e-03 0.0000000000000000e+00  -4.2304887857269275e-08 -5.7407283316186124e-03 0.0000000000000000e+00  1.0627082350324372e-07 -5.7673280070592806e-03 0.0000000000000000e+00  4.1969899582276623e-07 -5.7633585426004842e-03 0.0000000000000000e+00  -7.9361384313738011e-09 -5.3107393815983537e-03 0.0000000000000000e+00  -1.2344469711529949e-08 -5.6772835123340675e-03 0.0000000000000000e+00  -1.0983129350413769e-08 -5.4757563588945487e-03 0.0000000000000000e+00  -5.4758464541805075e-09 -3.4694774082536283e-03 0.0000000000000000e+00  0.0000000000000000e+00 0.0000000000000000e+00 0.0000000000000000e+00  -1.7672411187874620e-09 -5.3014908013676570e-03 0.0000000000000000e+00  -3.9443659926994839e-09 -5.6807668930883041e-03 0.0000000000000000e+00  -9.0434435438333473e-09 -5.4393039492382058e-03 0.0000000000000000e+00  -5.0866913365863006e-09 -3.5211163747709225e-03 0.0000000000000000e+00  0.0000000000000000e+00 0.0000000000000000e+00 0.0000000000000000e+00  -9.4822388344478904e-09 -5.3021753916230301e-03 0.0000000000000000e+00  -1.0298509559058612e-08 -5.6805824445728872e-03 0.0000000000000000e+00  -5.9039778951775352e-09 -5.4416440430432450e-03 0.0000000000000000e+00  -5.2123240497067642e-09 -3.5178075499706510e-03 0.0000000000000000e+00  0.0000000000000000e+00 0.0000000000000000e+00 0.0000000000000000e+00  7.7734351459744828e-10 -5.3396630772269173e-03 0.0000000000000000e+00  1.0511844322822980e-09 -5.6826524235579186e-03 0.0000000000000000e+00  3.4474155767172653e-09 -5.4791280677235531e-03 0.0000000000000000e+00  2.3751529148207589e-09 -5.7416411699851011e-03 0.0000000000000000e+00  4.8083717923561079e-10 -3.4848546546705351e-03 0.0000000000000000e+00  0.0000000000000000e+00 0.0000000000000000e+00 0.0000000000000000e+00  8.0143217601226184e-09 -5.5476834139070027e-03 0.0000000000000000e+00  5.6841931392574477e-09 -5.7038298473444712e-03 0.0000000000000000e+00  4.6762352308317971e-09 -3.4663021665699311e-03 0.0000000000000000e+00  6.2556183854091956e-10 -5.7653474844475546e-03 0.0000000000000000e+00  -1.2025234267133986e-10 -5.7605771622054351e-03 0.0000000000000000e+00  1.7410823447865634e-09 -5.7668402673732733e-03 0.0000000000000000e+00  1.6046709330613316e-09 -5.7682078840098723e-03 0.0000000000000000e+00  4.1552440292184675e-09 -5.7574849348243796e-03 0.0000000000000000e+00  -1.1172648742353005e-08 -5.4682476642619977e-03 0.0000000000000000e+00  -1.2945811321281608e-08 -5.6955426842371535e-03 0.0000000000000000e+00  -1.0998475439761564e-08 -3.4397415995342747e-03 0.0000000000000000e+00  -5.8515982847034992e-09 -5.7266405925100461e-03 0.0000000000000000e+00  -1.7167650167280394e-08 -5.2144279473896014e-03 0.0000000000000000e+00  4.5656675335157016e-09 -5.7647174166938035e-03 0.0000000000000000e+00  2.4993722295050722e-09 -5.7676282697158602e-03 0.0000000000000000e+00  3.5153990447466588e-09 -5.7683327110663448e-03 0.0000000000000000e+00  5.3722941981233298e-07 -5.4478212096111672e-03 0.0000000000000000e+00  6.6917508086704834e-07 -5.6002267710955223e-03 0.0000000000000000e+00  2.6029269066686261e-07 -5.2806948189001454e-03 0.0000000000000000e+00  -5.8426788667423465e-09 -5.7401017103008989e-03 0.0000000000000000e+00  -7.9662272761000502e-09 -5.7344213899916327e-03 0.0000000000000000e+00  8.1794460532923837e-10 -5.7667864887114510e-03 0.0000000000000000e+00  1.0998640462226795e-09 -5.7425811072680383e-03 0.0000000000000000e+00  8.7590285564037867e-10 -5.7344550117524856e-03 0.0000000000000000e+00  2.3418244798205094e-09 -5.7671472991975932e-03 0.0000000000000000e+00  -5.3210970445186261e-09 -5.7402728567192583e-03 0.0000000000000000e+00  -6.9652517258073178e-09 -5.7361550005824539e-03 0.0000000000000000e+00  -4.9580788290330989e-09 -5.7668044319212890e-03 0.0000000000000000e+00  6.1571649453690060e-09 -5.5154586139931740e-03 0.0000000000000000e+00  3.3319307831905662e-09 -5.7348336074094682e-03 0.0000000000000000e+00  4.6987900445951470e-09 -5.7505209964748057e-03 0.0000000000000000e+00  -2.3551348157129248e-10 -5.7533454293580205e-03 0.0000000000000000e+00  7.0334704273962742e-09 -5.7497444164302629e-03 0.0000000000000000e+00  7.9109948191636147e-09 -5.7495803814536480e-03 0.0000000000000000e+00  9.2156422145610238e-09 -5.7348678982769418e-03 0.0000000000000000e+00  9.4019478594591456e-09 -5.7506747575099019e-03 0.0000000000000000e+00  8.3489742325680835e-09 -5.7534469938084788e-03 0.0000000000000000e+00  5.0444135313407764e-09 -5.5244807679675116e-03 0.0000000000000000e+00  3.4941890429011025e-09 -5.7400812639667861e-03 0.0000000000000000e+00  9.5669419608190272e-10 -5.7488557557700409e-03 0.0000000000000000e+00  5.7237060554283528e-10 -5.7377234867478305e-03 0.0000000000000000e+00  3.9113846330025398e-09 -5.7501825624049459e-03 0.0000000000000000e+00  -2.8686716573156680e-10 -5.7521430411852838e-03 0.0000000000000000e+00  -2.9324842370990115e-09 -5.5245709233253115e-03 0.0000000000000000e+00  -6.2497317564086341e-09 -5.7401550616733021e-03 0.0000000000000000e+00  -4.2144474059123893e-09 -5.7489879956446116e-03 0.0000000000000000e+00  -3.5235746067939275e-09 -5.7381111385587050e-03 0.0000000000000000e+00  -3.1524416643499140e-09 -5.7502390000571148e-03 0.0000000000000000e+00  -2.7823006032584696e-09 -5.7524930777750954e-03 0.0000000000000000e+00  9.2617766364717535e-09 -5.7399779318221839e-03 0.0000000000000000e+00  4.7884372163621296e-09 -5.7489159812450976e-03 0.0000000000000000e+00  7.1383557631479317e-09 -5.7374771880652304e-03 0.0000000000000000e+00  -1.0929949490612303e-09 -5.7400094833344809e-03 0.0000000000000000e+00  -1.5775878639829461e-09 -5.7489390482933960e-03 0.0000000000000000e+00  2.5881738916760856e-10 -5.7375069189670733e-03 0.0000000000000000e+00  4.9341160086776957e-09 -5.5283070633120844e-03 0.0000000000000000e+00  6.4128063048883574e-09 -5.7405078778017321e-03 0.0000000000000000e+00  6.2834238296827387e-09 -5.7491693931382053e-03 0.0000000000000000e+00  6.9803012106371840e-09 -5.7381095498708371e-03 0.0000000000000000e+00  6.0298876468560807e-09 -5.7505252732482064e-03 0.0000000000000000e+00  5.5665448506196534e-09 -5.7523723800620265e-03 0.0000000000000000e+00  5.5109695663271795e-09 -5.7403796234877583e-03 0.0000000000000000e+00  5.1554669221524126e-09 -5.7488519812250484e-03 0.0000000000000000e+00  4.1449829338465990e-09 -5.7366295981555017e-03 0.0000000000000000e+00  -4.4335842221020575e-09 -5.5279595218782228e-03 0.0000000000000000e+00  -3.8409386973784113e-09 -5.7396036468222774e-03 0.0000000000000000e+00  -3.3422570846293997e-09 -5.7486895263467886e-03 0.0000000000000000e+00  -2.4734356657239655e-09 -5.7289576466005134e-03 0.0000000000000000e+00  -5.0373155626159531e-09 -5.7504782111277956e-03 0.0000000000000000e+00  -3.4126529162940604e-09 -5.7521600422069333e-03 0.0000000000000000e+00  -6.9079913823187814e-09 -5.7404192248332788e-03 0.0000000000000000e+00  -5.4475085205974514e-09 -5.7488495968756863e-03 0.0000000000000000e+00  -6.3724611050557052e-09 -5.7374893221961111e-03 0.0000000000000000e+00  1.1875808624133038e-08 -5.5244265012431336e-03 0.0000000000000000e+00  1.8350079350273248e-08 -5.7399569416629655e-03 0.0000000000000000e+00  1.9719975146030858e-08 -5.7488443730005076e-03 0.0000000000000000e+00  2.2048200154243228e-08 -5.7373795370566881e-03 0.0000000000000000e+00  1.6484509661673072e-08 -5.7501772136562086e-03 0.0000000000000000e+00  1.6255936528407309e-08 -5.7521134434394801e-03 0.0000000000000000e+00  9.1680783550580564e-09 -5.5455151440682174e-03 0.0000000000000000e+00  7.4849969301927338e-09 -5.7160227008677764e-03 0.0000000000000000e+00  4.7655398504082277e-09 -5.7521821020671739e-03 0.0000000000000000e+00  2.6850528311425506e-09 -5.7410977527204568e-03 0.0000000000000000e+00  8.0539087632911136e-09 -5.7501143670551005e-03 0.0000000000000000e+00  4.6258467982481393e-09 -5.7531747079399556e-03 0.0000000000000000e+00  -9.1834245396269309e-09 -5.5244640996142142e-03 0.0000000000000000e+00  -1.1770614150896552e-08 -5.7399769595888805e-03 0.0000000000000000e+00  -7.8526284125937801e-09 -5.7488262164514569e-03 0.0000000000000000e+00  -8.