<?xml version="1.0"?>
<VTKFile type="UnstructuredGrid"  version="0.1"  >
<UnstructuredGrid>
<Piece  NumberOfPoints="2690" NumberOfCells="4864">
<Points>
<DataArray  type="Float64"  NumberOfComponents="3"  format="ascii">-5.101867072408832 22.02223675549029 0  -5.686979760121326 21.28492866042998 0  -5.099887780345848 21.52405376390296 0  -5.097469337263407 21.02231867768633 0  -5.689023367746588 21.78534765126043 0  -6.27609252592823 21.54487356127595 0  -9 21.99999999996945 0  -8.411751562924891 21.26714702243232 0  -9 21.49999999997139 0  -9 20.99999999997333 0  -8.412113554503982 21.76712137060635 0  -7.823888812839064 21.53418349107521 0  -9 32.9999999999446 0  -8.419641678158298 32.26707357439351 0  -9 32.49999999994358 0  -9 31.99999999994255 0  -8.420002820274053 32.76708091850985 0  -7.839664564218928 32.5341076738577 0  -5.154185166750718 33.0240106064515 0  -5.651179009512412 32.32012470737889 0  -5.152132854790206 32.52721540272493 0  -5.149507827711965 32.02323289563368 0  -5.653303812039868 32.82074667907444 0  -6.152329655326761 32.61402244956036 0  -5.256290781794896 54.0228413680806 0  -5.823754368229133 54.75926390680387 0  -5.82173075562572 54.26022551886387 0  -6.386786339262335 54.49426786311525 0  -5.258730091920444 54.52457804929577 0  -5.260763339028081 55.02303241744987 0  -9 54.99999999998974 0  -8.504045506065765 54.30002754743617 0  -9 54.49999999998872 0  -9 53.99999999998769 0  -8.504369719949317 54.79992927080736 0  -8.008483907515233 54.59989088824174 0  -9 39.99999999995897 0  -8.425778662757471 40.74199615148631 0  -8.425417238178202 40.24200184621302 0  -7.851180606440632 40.483935220555 0  -9 40.49999999996 0  -9 40.99999999996102 0  -5.192589362758383 41.02117966362957 0  -5.738576147762134 40.29065585192598 0  -5.190548435128149 40.52466115363577 0  -5.188144130902191 40.02387843300871 0  -5.740619852657308 40.79029713818517 0  -6.288634366386541 40.55550566795471 0  -9 55.99999999999179 0  -8.46057988729781 56.74748269491604 0  -8.460260477701359 56.24742005340443 0  -7.920855152324762 56.49484048326606 0  -9 56.49999999999282 0  -9 56.99999999999384 0  -5.266113464292341 56.02177675496488 0  -5.808887259222752 56.76520036783371 0  -5.80690895011807 56.26510369366606 0  -6.347243643570361 56.5056676828127 0  -5.268703739477425 56.52531450357111 0  -5.270733105030393 57.02311839055698 0  -7.516611180014356 43.01260169246726 0  -6.712009158497277 43.12786311095326 0  -7.29090088250379 43.35207970590703 0  -7.065373326021231 43.6915733408648 0  -6.937525887284484 42.78824523502395 0  -6.358127496089743 42.56390047877527 0  -6.703217045491624 49.02384052161138 0  -7.501933501984387 48.90723722726774 0  -6.927016921219785 48.6841969418654 0  -7.151040769569293 48.34447862568191 0  -7.277933298994191 49.24683564519837 0  -7.852299303496979 49.47000032819418 0  -6.694468776561749 46.02238519438277 0  -7.496229744086119 45.90628988336874 0  -6.919171482461834 45.68247020956534 0  -7.144078133515686 45.34267106495399 0  -7.271335076677616 46.24607018126802 0  -7.847881524537858 46.46967219148669 0  -6.581733442683774 7.023136839357611 0  -7.422712843866299 6.90689015289217 0  -6.817476423741624 6.683480261566513 0  -7.053424736732843 6.343828455865676 0  -7.186776879143432 7.24653701032326 0  -7.791502630046486 7.469922257252915 0  -7.492259459570143 30.01246088638011 0  -6.674433761915434 30.12754433889947 0  -7.262847333693166 30.35159313138418 0  -7.033626092407514 30.69064577312029 0  -6.903654849213138 29.78833664874914 0  -6.314723930433582 29.56434035483215 0  -6.573569731915876 4.022017771035868 0  -7.417812572691373 4.12253778585977 0  -6.811772414376813 4.357394527751209 0  -7.049818325067957 4.692700006514534 0  -7.179777440893355 3.787189048479846 0  -7.786258794945263 3.552502618841511 0  -6.590144891824901 10.02332686108477 0  -7.428582819326767 10.12341351459825 0  -6.826762062239949 10.35841285223733 0  -7.063211600911 10.69350063398171 0  -7.192115614571022 9.788350132568764 0  -7.794418025317546 9.553343863596929 0  -6.598580429371349 13.02354455848793 0  -7.433683183553573 12.90721817579705 0  -6.832660274310665 12.68389570168318 0  -7.06694413569537 12.34425349638429 0  -7.199401898427714 13.24689308315312 0  -7.799917100735197 13.47017798002426 0  -6.607083005031417 16.0239037449029 0  -7.439246652410468 15.90732558014437 0  -6.840327548030777 15.68428222733383 0  -7.073783586503652 15.34460188530422 0  -7.205810685786961 16.24691967588225 0  -7.804204986994876 16.47006986226645 0  -6.615926051937531 19.0214146995241 0  -7.445428230186263 19.12191296858234 0  -6.850127408386212 19.35610955494871 0  -7.084116129874223 19.69094039901423 0  -7.211418834755657 18.78701077296685 0  -7.807269031080204 18.55254592965273 0  -6.639130976392555 27.02061718980749 0  -7.460565876488516 27.12141478124762 0  -6.871011244424572 27.35576604051607 0  -7.102711910809365 27.69094787618284 0  -7.228865487394017 26.78610451446058 0  -7.818917726497763 26.55178003095232 0  -8.285227878637805 19.10020875736625 0  -8.046331328914901 18.82634201172771 0  -8.403432302380889 18.27633552213991 0  -8.642368192609513 18.55020271561993 0  -9 17.99999999998495 0  -8.292192556620936 27.09995778738361 0  -8.055633714778233 26.82587184099079 0  -8.40926491364837 26.27586911212715 0  -8.6458608342529 26.54997455573589 0  -9 25.99999999995395 0  -8.282413716107497 15.91319163068347 0  -8.043228579434034 16.19164343566771 0  -8.402298564648607 16.73498497812649 0  -8.641444357911436 16.4565594729854 0  -9 16.99999999998883 0  -5.845921136859366 30.12113853607669 0  -6.080237650986987 29.84271686877386 0  -5.725288467477299 29.29858037601633 0  -5.490974841902247 29.57805463730517 0  -5.134790269568906 29.02225183429739 0  -8.279851177259436 12.91318096289348 0  -8.039805386021355 13.1916748248538 0  -8.400147513481201 13.73509872284156 0  -8.640157523449686 13.45660129397892 0  -9 13.99999999999401 0  -8.277482899625614 10.10091225435901 0  -8.036026668919206 9.827128917938632 0  -8.397017795784961 9.276668395275097 0  -8.638513075062281 9.550451746999311 0  -9 8.99999999999857 0  -8.272548077320623 4.100497599243105 0  -8.029471580795969 3.826518512147115 0  -8.392976962281583 3.276219101183549 0  -8.636074137219756 3.550202762918818 0  -9 2.999999999998668 0  -8.274810776968252 6.913016846687411 0  -8.033078289505086 7.191465158806589 0  -8.395939438076388 7.7349676181653 0  -8.637635031610197 7.456521977490215 0  -9 7.999999999999485 0  -8.308611252795528 45.91274008489101 0  -8.07816681948438 46.19117971987102 0  -8.424134105486955 46.73487760655182 0  -8.654540375431859 46.4564403811578 0  -9 46.99999999997333 0  -8.311236630876952 48.91313844914942 0  -8.08168386561149 49.19158242959602 0  -8.426352681401029 49.73494757613641 0  -8.655864773675734 49.45653624719308 0  -9 49.99999999997949 0  -5.896935550523002 43.12141390855976 0  -6.127444692703682 42.84265541597185 0  -5.778225322023939 42.29783250910501 0  -5.547730901650731 42.57776975843694 0  -5.197207656842841 42.02132606936804 0  -5.817360206935229 23.94382175905042 0  -6.060139120783798 24.20914426916414 0  -5.709506320037431 24.75357808520882 0  -6.302746050713538 24.47454326400075 0  -5.466883265371723 24.48930927930097 0  -5.116185054383847 25.02204919551603 0  -8.318584469836125 52.08991127604767 0  -8.084809919240588 51.82444899725644 0  -8.425222387965833 51.27958835387885 0  -7.850867677925061 51.55905036826846 0  -8.659043596883679 51.54504938106921 0  -9 50.99999999998153 0  -5.872681922444386 38.1108798414219 0  -6.109316667377586 37.84059344250707 0  -5.76015315713238 37.30112988601864 0  -6.346117048412268 37.57036994542567 0  -5.523519634000301 37.5726964432314 0  -5.173029607595103 37.02032986711108 0  -5.860228085110428 34.9436095209296 0  -6.099771534420226 35.20877118040442 0  -5.753923390095214 35.75292238499491 0  -6.339143528836035 35.47400377667083 0  -5.514521318038199 35.4889776690147 0  -5.168643602318515 36.02097749788265 0  -7.950296878607152 50.51053431761885 0  -7.900544593558947 51.0348210053885 0  -8.475321411349709 50.75520804278253 0  -6.239910389561433 36.52194891447702 0  -6.293037914129011 37.04602197583713 0  -5.706643718849299 36.77506102330404 0  -6.289491931716076 35.9978224554937 0  -5.704564120246994 36.2747911932795 0  -6.065650430722292 25.28411528111731 0  -6.184152997517272 24.8793737076795 0  -5.591167693119011 25.1571558692466 0  -8.056650388655626 25.75381274259166 0  -7.937726497961353 26.15279552270424 0  -8.528396414025565 25.87691018018483 0  -7.025235084896332 34.39213746610431 0  -6.681954178738662 34.93320431684072 0  -6.929234261201677 35.25555807896903 0  -7.272546352430846 34.71467955436234 0  -7.519654943338071 35.03718138886559 0  -7.178611664184809 52.64029148210309 0  -7.514490593170086 52.09979270007256 0  -7.272596923906745 51.77778477431897 0  -6.936741501623958 52.31835496849896 0  -6.694657706982125 51.99648134764983 0  -7.035743628012314 38.64018610355507 0  -6.691166362141408 38.10540787198816 0  -6.935778709471706 37.77869522837871 0  -7.280335030246021 38.31367477130441 0  -7.525126525759541 37.98711259296858 0  -6.998297396235713 23.3922561262488 0  -6.65029128234757 23.93348301166072 0  -6.900917581600909 24.25593948092975 0  -7.248958935386357 23.71487105451165 0  -7.499420540104317 24.03742344824186 0  -7.906341531205094 17.51043178991813 0  -7.856769053911719 18.03152252192834 0  -8.453339211549869 17.75515559274215 0  -7.855303635041643 16.99026298564241 0  -8.453002647746938 17.25524950519624 0  -7.894655324835431 8.510667441421996 0  -7.84450735768829 9.032007832703739 0  -8.447485629040324 8.755335997939454 0  -7.934514473211849 2.424866459410941 0  -7.860324178272522 2.988656593294433 0  -8.467405188923539 2.712464164441783 0  -7.843110729073292 7.990300678632863 0  -8.447165292440602 8.255326239686525 0  -7.901330727159134 49.99028056219958 0  -8.474973859905326 50.25530285266458 0  -6.172176224412203 41.61464316274853 0  -6.265211495640158 42.08937313
[...]
<PointData  Vectors="f_27"> 
<DataArray  type="Float64"  Name="f_27"  NumberOfComponents="3" format="ascii">0.0000000000000000e+00 0.0000000000000000e+00 0.0000000000000000e+00  6.8525482083637807e-06 -7.4616198797222691e-03 0.0000000000000000e+00  0.0000000000000000e+00 0.0000000000000000e+00 0.0000000000000000e+00  0.0000000000000000e+00 0.0000000000000000e+00 0.0000000000000000e+00  4.5733002605228747e-07 -1.0462771152299809e-02 0.0000000000000000e+00  1.5005367378724526e-05 -1.0757364311978166e-02 0.0000000000000000e+00  0.0000000000000000e+00 0.0000000000000000e+00 0.0000000000000000e+00  3.2348174109158354e-05 -7.5948873422556386e-03 0.0000000000000000e+00  0.0000000000000000e+00 0.0000000000000000e+00 0.0000000000000000e+00  0.0000000000000000e+00 0.0000000000000000e+00 0.0000000000000000e+00  6.3875585893889795e-05 -1.0425962474951440e-02 0.0000000000000000e+00  5.0566756710886758e-05 -1.0798321852105794e-02 0.0000000000000000e+00  0.0000000000000000e+00 0.0000000000000000e+00 0.0000000000000000e+00  3.3185810908825489e-05 -7.3744663218133560e-03 0.0000000000000000e+00  0.0000000000000000e+00 0.0000000000000000e+00 0.0000000000000000e+00  0.0000000000000000e+00 0.0000000000000000e+00 0.0000000000000000e+00  6.5024175690092228e-05 -1.0328311884403337e-02 0.0000000000000000e+00  5.4476736902772924e-05 -1.0701683189047274e-02 0.0000000000000000e+00  0.0000000000000000e+00 0.0000000000000000e+00 0.0000000000000000e+00  1.4309253348980929e-05 -7.7556919109485045e-03 0.0000000000000000e+00  0.0000000000000000e+00 0.0000000000000000e+00 0.0000000000000000e+00  0.0000000000000000e+00 0.0000000000000000e+00 0.0000000000000000e+00  2.2109219966072983e-05 -1.0384874211585156e-02 0.0000000000000000e+00  3.0646719344876347e-05 -1.0738880680601748e-02 0.0000000000000000e+00  0.0000000000000000e+00 0.0000000000000000e+00 0.0000000000000000e+00  2.3333089660846871e-05 -7.5619984123520730e-03 0.0000000000000000e+00  4.9779170064090501e-05 -1.0145629536364499e-02 0.0000000000000000e+00  4.3831664336150342e-05 -1.0503773177070009e-02 0.0000000000000000e+00  0.0000000000000000e+00 0.0000000000000000e+00 0.0000000000000000e+00  0.0000000000000000e+00 0.0000000000000000e+00 0.0000000000000000e+00  0.0000000000000000e+00 0.0000000000000000e+00 0.0000000000000000e+00  3.2319802783492643e-05 -7.5494199592820391e-03 0.0000000000000000e+00  0.0000000000000000e+00 0.0000000000000000e+00 0.0000000000000000e+00  0.0000000000000000e+00 0.0000000000000000e+00 0.0000000000000000e+00  4.6155236233976257e-05 -1.0256200651039802e-02 0.0000000000000000e+00  4.6432924412865108e-05 -1.0540540532878616e-02 0.0000000000000000e+00  0.0000000000000000e+00 0.0000000000000000e+00 0.0000000000000000e+00  2.8853653826325773e-05 -7.2981161908713755e-03 0.0000000000000000e+00  2.5227566635300646e-05 -1.0271283627054114e-02 0.0000000000000000e+00  3.5861945364962115e-05 -1.0636208920628941e-02 0.0000000000000000e+00  0.0000000000000000e+00 0.0000000000000000e+00 0.0000000000000000e+00  0.0000000000000000e+00 0.0000000000000000e+00 0.0000000000000000e+00  0.0000000000000000e+00 0.0000000000000000e+00 0.0000000000000000e+00  2.1402634458510129e-05 -7.4275163753182863e-03 0.0000000000000000e+00  0.0000000000000000e+00 0.0000000000000000e+00 0.0000000000000000e+00  0.0000000000000000e+00 0.0000000000000000e+00 0.0000000000000000e+00  1.8683917083108856e-05 -1.0396262439328162e-02 0.0000000000000000e+00  2.9038086575939935e-05 -1.0660262359574877e-02 0.0000000000000000e+00  0.0000000000000000e+00 0.0000000000000000e+00 0.0000000000000000e+00  4.2784051552829689e-05 -7.8303398799071666e-03 0.0000000000000000e+00  3.4469641216284867e-05 -1.0182290871823686e-02 0.0000000000000000e+00  4.8042927869773398e-05 -1.0516088310146408e-02 0.0000000000000000e+00  0.0000000000000000e+00 0.0000000000000000e+00 0.0000000000000000e+00  0.0000000000000000e+00 0.0000000000000000e+00 0.0000000000000000e+00  0.0000000000000000e+00 0.0000000000000000e+00 0.0000000000000000e+00  2.0903844546914979e-05 -7.8390555620211268e-03 0.0000000000000000e+00  4.2806643862043654e-05 -1.0182995916104933e-02 0.0000000000000000e+00  3.6235225790319460e-05 -1.0511360823921956e-02 0.0000000000000000e+00  0.0000000000000000e+00 0.0000000000000000e+00 0.0000000000000000e+00  0.0000000000000000e+00 0.0000000000000000e+00 0.0000000000000000e+00  6.4859558855421762e-05 -1.0926811260250401e-02 0.0000000000000000e+00  7.2913496623462580e-05 -1.0936651687543961e-02 0.0000000000000000e+00  6.4694766901022248e-05 -1.0935697255507500e-02 0.0000000000000000e+00  6.1558800429579032e-05 -1.0934790597677784e-02 0.0000000000000000e+00  6.8748196044160235e-05 -1.0935548274878555e-02 0.0000000000000000e+00  6.6602489815905660e-05 -1.0900745195919062e-02 0.0000000000000000e+00  8.3675259867638517e-05 -1.0863942495393724e-02 0.0000000000000000e+00  7.7962424208497888e-05 -1.0863642830672945e-02 0.0000000000000000e+00  8.4514203940560685e-05 -1.0878719586518645e-02 0.0000000000000000e+00  8.2213319553457541e-05 -1.0876293322113227e-02 0.0000000000000000e+00  7.7206430983861994e-05 -1.0871705231812632e-02 0.0000000000000000e+00  6.8324569898808312e-05 -1.0830333064059000e-02 0.0000000000000000e+00  7.3441473148382931e-05 -1.0897685032183061e-02 0.0000000000000000e+00  6.4260237205921597e-05 -1.0902706073792734e-02 0.0000000000000000e+00  6.7004702251453234e-05 -1.0908626822253291e-02 0.0000000000000000e+00  5.9379124679617808e-05 -1.0913545865786535e-02 0.0000000000000000e+00  6.9215581897695875e-05 -1.0900056656707929e-02 0.0000000000000000e+00  6.2215916068518676e-05 -1.0853501655512287e-02 0.0000000000000000e+00  6.9903169538581428e-05 -1.1208148404980951e-02 0.0000000000000000e+00  6.2883160769837873e-05 -1.1217598270022404e-02 0.0000000000000000e+00  6.6766141556745903e-05 -1.1221861224066548e-02 0.0000000000000000e+00  6.6402187155966417e-05 -1.1225673049190164e-02 0.0000000000000000e+00  6.4153418482111317e-05 -1.1216881514238216e-02 0.0000000000000000e+00  5.6454525516176045e-05 -1.1176354268399559e-02 0.0000000000000000e+00  6.0460083627783911e-05 -1.1029485602887825e-02 0.0000000000000000e+00  7.2499942867573471e-05 -1.1022224152039434e-02 0.0000000000000000e+00  6.1554935427494986e-05 -1.1039961418380427e-02 0.0000000000000000e+00  5.9302622522050052e-05 -1.1030379515357021e-02 0.0000000000000000e+00  6.6950445279777596e-05 -1.1033791171259114e-02 0.0000000000000000e+00  6.7160965092274204e-05 -1.0991156048815660e-02 0.0000000000000000e+00  7.6215199652517542e-05 -1.1243354334672998e-02 0.0000000000000000e+00  6.8713191038559610e-05 -1.1237276595861328e-02 0.0000000000000000e+00  7.2314519564938056e-05 -1.1245762727591769e-02 0.0000000000000000e+00  6.9408907495039046e-05 -1.1241610212011558e-02 0.0000000000000000e+00  7.0376510947505963e-05 -1.1240761381888002e-02 0.0000000000000000e+00  6.8677343167306034e-05 -1.1198627025909147e-02 0.0000000000000000e+00  7.3337462627258963e-05 -1.1194239937418814e-02 0.0000000000000000e+00  6.7940373754596313e-05 -1.1194303726345394e-02 0.0000000000000000e+00  6.8404247377211805e-05 -1.1198329426021041e-02 0.0000000000000000e+00  6.6806249175423605e-05 -1.1195077699473272e-02 0.0000000000000000e+00  7.2563844319219957e-05 -1.1198355964122225e-02 0.0000000000000000e+00  7.4092662140567617e-05 -1.1155026939667318e-02 0.0000000000000000e+00  6.8537783750788320e-05 -1.1162568816266547e-02 0.0000000000000000e+00  6.3257918247096220e-05 -1.1173023046706853e-02 0.0000000000000000e+00  6.6111263903242688e-05 -1.1176654869247639e-02 0.0000000000000000e+00  6.6370970797839744e-05 -1.1180604948758650e-02 0.0000000000000000e+00  6.3634876832848985e-05 -1.1170688639198961e-02 0.0000000000000000e+00  5.7471947620038874e-05 -1.1127404727677918e-02 0.0000000000000000e+00  7.8827907176629589e-05 -1.1140890050562527e-02 0.0000000000000000e+00  7.2901676150234515e-05 -1.1139985284885839e-02 0.0000000000000000e+00  7.9333719482221855e-05 -1.1154579410090399e-02 0.0000000000000000e+00  7.6759396106760281e-05 -1.1151318780203675e-02 0.0000000000000000e+00  7.2133155190760886e-05 -1.1149399233754378e-02 0.0000000000000000e+00  6.3424162024903823e-05 -1.1108242156082852e-02 0.0000000000000000e+00  8.7333603455481263e-05 -1.1108851004200681e-02 0.0000000000000000e+00  7.0459393564506096e-05 -1.1114729475794616e-02 0.0000000000000000e+00  7.9901197249685613e-05 -1.1125059788960752e-02 0.0000000000000000e+00  6.7073601856189045e-05 -1.1116034960931340e-02 0.0000000000000000e+00  7.8644055087233225e-05 -1.1126170551552964e-02 0.0000000000000000e+00  7.6350255357116216e-05 -1.1087048482747821e-02 0.0000000000000000e+00  8.3564225099142506e-05 -1.1054696590330038e-02 0.0000000000000000e+00  7.0501120357262603e-05 -1.1062377316047303e-02 0.0000000000000000e+00  7.8486281219138993e-05 -1.1065187741383006e-02 0.0000000000000000e+00  6.8503380722909177e-05 -1.1058459688531551e-02 0.0000000000000000e+00  7.2820428954597914e-05 -1.1063915653228590e-02 0.0000000000000000e+00  6.8178172850615016e-05 -1.1026559462408429e-02 0.0000000000000000e+00  5.3388738197633424e-05 -1.0425549736666722e-02 0.0000000000000000e+00  6.7652513162006807e-05 -1.1020861693241677e-02 0.0000000000000000e+00  7.4982384855523231e-05 -1.0552319163657139e-02 0.0000000000000000e+00  4.7904649776554035e-05 -7.4942704845348054e-03 0.0000000000000000e+00  0.0000000000000000e+00 0.0000000000000000e+00 0.0000000000000000e+00  5.4699437223821363e-05 -1.0362165672276276e-02 0.0000000000000000e+00  6.1875435907532970e-05 -1.0952431414681470e-02 0.0000000000000000e+00  6.3350347795470966e-05 -1.0488181576504073e-02 0.0000000000000000e+00  4.2655001282412691e-05 -7.4199592925742186e-03 0.0000000000000000e+00  0.0000000000000000e+00 0.0000000000000000e+00 0.0000000000000000e+00  5.9208736450661467e-05 -1.0455436715507990e-02 0.0000000000000000e+00  5.6294379880693661e-05 -1.1034870807195478e-02 0.0000000000000000e+00  4.6568257813761183e-05 -1.0629534288059262e-02 0.0000000000000000e+00  2.8529732208631614e-05 -7.4334022325339777e-03 0.0000000000000000e+00  0.0000000000000000e+00 0.0000000000000000e+00 0.0000000000000000e+00  7.1456740120080269e-05 -1.0330271938908620e-02 0.0000000000000000e+00  1.0121459924443307e-04 -1.0913852750416243e-02 0.0000000000000000e+00  4.7487693646662089e-05 -1.0500463420162058e-02 0.0000000000000000e+00  3.3869848227604905e-05 -7.4386234692075687e-03 0.0000000000000000e+00  0.0000000000000000e+00 0.0000000000000000e+00 0.0000000000000000e+00  5.7302362682966411e-05 -1.0470637294539054e-02 0.0000000000000000e+00  5.4875018643349253e-05 -1.1056079980617708e-02 0.0000000000000000e+00  4.6679048410567450e-05 -1.0587674704826329e-02 0.0000000000000000e+00  3.4115398543648483e-05 -7.5228174991333078e-03 0.0000000000000000e+00  0.0000000000000000e+00 0.0000000000000000e+00 0.0000000000000000e+00  5.9613104691116053e-05 -1.0490853484462536e-02 0.0000000000000000e+00  6.8974513101937749e-05 -1.1082477113985967e-02 0.0000000000000000e+00  7.5240549752658264e-05 -1.0610842474780294e-02 0.0000000000000000e+00  5.0288120824103378e-05 -7.5561499538095624e-03 0.0000000000000000e+00  0.0000000000000000e+00 0.0000000000000000e+00 0.0000000000000000e+00  5.9286205929845755e-05 -1.0543396774334140e-02 0.0000000000000000e+00  6.5979061139544910e-05 -1.1117808174773567e-02 0.0000000000000000e+00  7.0320464549841999e-05 -1.0714743414868541e-02 0.0000000000000000e+00  5.1675485534479364e-05 -7.5241863808457425e-03 0.0000000000000000e+00  0.0000000000000000e+00 0.0000000000000000e+00 0.0000000000000000e+00  5.2099475708524734e-05 -1.0527845400294786e-02 0.0000000000000000e+00  4.9699432124183488e-05 -1.1099712215008899e-02 0.0000000000000000e+00  4.1774975748771580e-05 -1.0690171192257880e-02 0.0000000000000000e+00  2.5161926237085896e-05 -7.5001154859909071e-03 0.0000000000000000e+00  0.0000000000000000e+00 0.0000000000000000e+00 0.0000000000000000e+00  5.9315590658946928e-05 -1.0187385554100700e-02 0.0000000000000000e+00  5.8321564029891707e-05 -1.0777743091853659e-02 0.0000000000000000e+00  5.1190115508142726e-05 -1.0322088417808515e-02 0.0000000000000000e+00  3.5862275462222243e-05 -7.2488099225773948e-03 0.0000000000000000e+00  0.0000000000000000e+00 0.0000000000000000e+00 0.0000000000000000e+00  6.3198535003794183e-05 -1.0172190896257371e-02 0.0000000000000000e+00  6.1255403514400478e-05 -1.0754474946092822e-02 0.0000000000000000e+00  5.1868918371850971e-05 -1.0359707133833848e-02 0.0000000000000000e+00  3.2209905614949076e-05 -7.1609441318669625e-03 0.0000000000000000e+00  0.0000000000000000e+00 0.0000000000000000e+00 0.0000000000000000e+00  7.0328743007693479e-05 -1.0235321577326206e-02 0.0000000000000000e+00  1.0062275119012799e-04 -1.0822098846688038e-02 0.0000000000000000e+00  4.1483081801484615e-05 -1.0410087663016723e-02 0.0000000000000000e+00  3.3086013309146009e-05 -7.3431040972046745e-03 0.0000000000000000e+00  0.0000000000000000e+00 0.0000000000000000e+00 0.0000000000000000e+00  7.7136049372747455e-05 -1.0426646980160962e-02 0.0000000000000000e+00  1.0319922360973145e-04 -1.0985225236993516e-02 0.0000000000000000e+00  6.0857727270679027e-05 -1.0463412161942008e-02 0.0000000000000000e+00  7.4024302233038748e-05 -1.1044491546709945e-02 0.0000000000000000e+00  4.4505662715235833e-05 -7.4098496061152227e-03 0.0000000000000000e+00  0.0000000000000000e+00 0.0000000000000000e+00 0.0000000000000000e+00  5.9888025811981628e-05 -1.0184699329736801e-02 0.0000000000000000e+00  7.1090801561862470e-05 -1.0741970124753733e-02 0.0000000000000000e+00  7.6193729230923348e-05 -1.0280255179720742e-02 0.0000000000000000e+00  7.5564326067869560e-05 -1.0801430944831603e-02 0.0000000000000000e+00  4.8485689624492434e-05 -7.2423877835522650e-03 0.0000000000000000e+00  0.0000000000000000e+00 0.0000000000000000e+00 0.0000000000000000e+00  7.5381862223096010e-05 -1.0317832953860254e-02 0.0000000000000000e+00  9.5791470307639762e-05 -1.0857661462345148e-02 0.0000000000000000e+00  3.2526534488358446e-05 -1.0443144075368798e-02 0.0000000000000000e+00  6.3052042561773257e-05 -1.0923102503880750e-02 0.0000000000000000e+00  3.4581577722789956e-05 -7.4167423712296534e-03 0.0000000000000000e+00  0.0000000000000000e+00 0.0000000000000000e+00 0.0000000000000000e+00  8.6185651311477572e-05 -1.0347510801769272e-02 0.0000000000000000e+00  1.1396780614488198e-04 -1.0886719414934642e-02 0.0000000000000000e+00  6.5168908993110285e-05 -1.0449640201483300e-02 0.0000000000000000e+00  7.9489532028009454e-05 -1.0955358688122280e-02 0.0000000000000000e+00  5.2492005420025843e-05 -7.2388856767103462e-03 0.0000000000000000e+00  0.0000000000000000e+00 0.0000000000000000e+00 0.0000000000000000e+00  6.7660017198127199e-05 -1.0396384204609716e-02 0.0000000000000000e+00  7.6658309007006029e-05 -1.0807335849262757e-02 0.0000000000000000e+00  7.8325672054038891e-05 -1.0009376076559042e-02 0.0000000000000000e+00  1.4869027782491915e-05 -1.0521181190870107e-02 0.0000000000000000e+00  4.0753838579197165e-05 -1.0929000785111319e-02 0.0000000000000000e+00  -2.9021844126362392e-05 -1.0140934416582691e-02 0.0000000000000000e+00  5.9564155995452356e-05 -1.0894763307985257e-02 0.0000000000000000e+00  -1.9234517721468448e-05 -7.0052129756135928e-03 0.0000000000000000e+00  2.7162522120133934e-05 -1.0728665009951186e-02 0.0000000000000000e+00  5.7021482560523619e-05 -1.1035657330795895e-02 0.0000000000000000e+00  2.4939003545899777e-06 -1.0301865038831574e-02 0.0000000000000000e+00  5.9473333095248254e-05 -1.0679365152519143e-02 0.0000000000000000e+00  6.3548116538651920e-05 -1.1020026214935169e-02 0.0000000000000000e+00  6.3581374910038818e-05 -1.0279916063448337e-02 0.0000000000000000e+00  7.2391259837171600e-05 -1.1002714489973841e-02 0.0000000000000000e+00  8.5453806771000940e-05 -1.0988794103469899e-02 0.0000000000000000e+00  7.3952318743717373e-05 -1.1001483678064413e-02 0.0000000000000000e+00  7.3739596905360934e-05 -1.1003208907184720e-02 0.0000000000000000e+00  6.7160374508392696e-05 -1.0990719104094592e-02 0.0000000000000000e+00  7.4200305323717062e-05 -1.0826299009091237e-02 0.0000000000000000e+00  6.8570227217770589e-05 -1.0819347929758786e-02 0.0000000000000000e+00  7.6128479700320373e-05 -1.0841174036719589e-02 0.0000000000000000e+00  7.8722839936028047e-05 -1.0837608016719961e-02 0.0000000000000000e+00  7.7977366156600797e-05 -1.0822246612977574e-02 0.0000000000000000e+00  6.6492295930161330e-05 -1.0966409450144899e-02 0.0000000000000000e+00  7.9592461232536518e-05 -1.0953148189364140e-02 0.0000000000000000e+00  6.5699749659754015e-05 -1.0967877723039350e-02 0.0000000000000000e+00  6.6662449049466712e-05 -1.0971182828188328e-02 0.0000000000000000e+00  5.9457009931303897e-05 -1.0963628530387579e-02 0.0000000000000000e+00  6.6690194938098297e-05 -1.1092283185313424e-02 0.0000000000000000e+00  7.8918673496121915e-05 -1.1082082337264520e-02 0.0000000000000000e+00  6.8303978286028168e-05 -1.1091627924336525e-02 0.0000000000000000e+00  6.8021146107221040e-05 -1.1092034300103909e-02 0.0000000000000000e+00  6.0671726203962005e-05 -1.1074522856569968e-02 0.0000000000000000e+00  6.5121262673404256e-05 -1.0676393054196764e-02 0.0000000000000000e+00  7.5737999536093159e-05 -1.1089693930799885e-02 0.0000000000000000e+00  7.8111649409632621e-05 -1.0292420203766329e-02 0.0000000000000000e+00  5.7977164701215771e-05 -1.1053645620045413e-02 0.0000000000000000e+00  3.6849742605742157e-05 -7.1342141220179078e-03 0.0000000000000000e+00  6.2423984056976444e-05 -1.0742125098578120e-02 0.0000000000000000e+00  7.3450285367317650e-05 -1.1154094443488687e-02 0.0000000000000000e+00  7.7476675981153135e-05 -1.0354147452594747e-02 0.0000000000000000e+00  6.0536432207951813e-05 -1.0850823224511799e-02 0.0000000000000000e+00  6.5871922965878197e-05 -1.1153213823774400e-02 0.0000000000000000e+00  4.0447035020452610e-05 -7.2894781373757586e-03 0.0000000000000000e+00  5.3142255623147758e-05 -1.1119052079752407e-02 0.0000000000000000e+00  3.5204559861165963e-05 -7.1905148869817904e-03 0.0000000000000000e+00  6.2288084449593772e-05 -1.0772802746951950e-02 0.0000000000000000e+00  3.9232195206220938e-05 -6.8944395369662532e-03 0.0000000000000000e+00  1.1192617585390060e-05 -1.0547270461797100e-02 0.0000000000000000e+00  4.9800673877503682e-05 -1.0906204093454230e-02 0.0000000000000000e+00  -1.5777383005428938e-05 -1.0121256640050962e-02 0.0000000000000000e+00  5.9123543369231489e-05 -1.1086178027366861e-02 0.0000000000000000e+00  6.4204366112264824e-05 -1.1093162541331476e-02 0.0000000000000000e+00  6.1886876678002379e-05 -1.1089687288428744e-02 0.0000000000000000e+00  7.6155902991026942e-05 -1.0849959366037470e-02 0.0000000000000000e+00  7.7055822337977539e-05 -1.0853351851154266e-02 0.0000000000000000e+00  7.5728146983556501e-05 -1.0846626661309275e-02 0.0000000000000000e+00  5.6414958175051000e-05 -1.0974192442613875e-02 0.0000000000000000e+00  5.6850299787260371e-05 -1.0973110576918580e-02 0.0000000000000000e+00  6.0470606060763216e-05 -1.0974865008489406e-02 0.0000000000000000e+00  6.4098039310481894e-05 -1.0997528905210044e-02 0.0000000000000000e+00  6.8095734417369683e-05 -1.0999993384903900e-02 0.0000000000000000e+00  6.7988221248447243e-05 -1.1000388042572268e-02 0.0000000000000000e+00  1.7554882410250597e-05 -1.0661087939276764e-02 0.0000000000000000e+00  5.1163946930512678e-05 -1.0993178617706359e-02 0.0000000000000000e+00  -1.8405172353822618e-05 -1.0239778047374103e-02 0.0000000000000000e+00  6.5741838554431913e-05 -1.0896072624040758e-02 0.0000000000000000e+00  7.9235023258459702e-05 -1.0888441498089140e-02 0.0000000000000000e+00  6.7532863057394069e-05 -1.0939455304277697e-02 0.0000000000000000e+00  7.6918292161780918e-05 -1.0587440169339267e-02 0.0000000000000000e+00  7.2635917512920456e-05 -1.0810760982785833e-02 0.0000000000000000e+00  7.9826692831427989e-05 -1.0864695560221656e-02 0.0000000000000000e+00  6.1175634415093223e-05 -1.0866307856017693e-02 0.0000000000000000e+00  6.2434928027131723e-05 -1.0846736320101790e-02 0.0000000000000000e+00  6.1388495942695266e-05 -1.0904891742846343e-02 0.0000