<?xml version="1.0"?>
<VTKFile type="UnstructuredGrid"  version="0.1"  >
<UnstructuredGrid>
<Piece  NumberOfPoints="2690" NumberOfCells="4864">
<Points>
<DataArray  type="Float64"  NumberOfComponents="3"  format="ascii">-5.025673767051901 22.00563316526529 0  -5.624242109725812 21.26819140584109 0  -5.025158634659483 21.5060965105613 0  -5.024573484641681 21.00567256607602 0  -5.624740754191647 21.76829164860811 0  -6.223831512811516 21.53003897677487 0  -9 21.99999999996945 0  -8.400623040853 21.26367747089405 0  -9 21.49999999997139 0  -9 20.99999999997333 0  -8.40071176479567 21.76367084630561 0  -7.801339625176626 21.52732710866213 0  -9 32.9999999999446 0  -8.402574055938031 32.2636591774899 0  -9 32.49999999994358 0  -9 31.99999999994255 0  -8.402662841829512 32.76366077423835 0  -7.805241462360895 32.52730840956343 0  -5.038626384524481 33.00609389877908 0  -5.552619650221073 32.30238807547601 0  -5.038085171429214 32.50690118819732 0  -5.037477176264463 32.00590136303327 0  -5.553132696593774 32.80254292906653 0  -6.067663194197303 32.59811945154145 0  -5.063528455654309 54.00582679263375 0  -5.657764461169728 54.74305197274092 0  -5.657274377196697 54.24329343495743 0  -6.250968123173124 54.47991055833864 0  -5.064085736704018 54.50624244713123 0  -5.06461391445118 55.00588393623007 0  -9 54.99999999998974 0  -8.47838711545559 54.29710940705396 0  -9 54.49999999998872 0  -9 53.99999999998769 0  -8.478463825578709 54.79708580986326 0  -7.956866447105127 54.59417909643454 0  -9 39.99999999995897 0  -8.404081256566949 40.73864147850144 0  -8.403992486628475 40.2386425933641 0  -7.808069540404281 40.47726870125884 0  -9 40.49999999996 0  -9 40.99999999996102 0  -5.048065506690818 41.00540379111173 0  -5.616873421472069 40.27363013408429 0  -5.047530380304969 40.50627241587071 0  -5.046964618332788 40.00608552479704 0  -5.61737354753211 40.77353821149975 0  -6.18672091606492 40.54068907736445 0  -9 55.99999999999179 0  -8.431323296707046 56.74438387075572 0  -8.431247275134949 56.24436908659939 0  -7.8625742217818 56.48873754543779 0  -9 56.49999999999282 0  -9 56.99999999999384 0  -5.065884561435301 56.00557194121595 0  -5.635341779668468 56.74890636013988 0  -5.634854145256074 56.24888326481203 0  -6.203755277891584 56.49150131426855 0  -5.06647689072542 56.50642886450709 0  -5.067002831065348 57.00590031444507 0  -7.457210064449782 43.00318804410678 0  -6.62010513892764 43.11314908905325 0  -7.221892512407515 43.34106559135099 0  -6.986621950830942 43.67894794802328 0  -6.855376867520035 42.77523704958448 0  -6.253461024104467 42.54728645771308 0  -6.597549471562508 49.00600818080007 0  -7.433185827066645 48.89571112838587 0  -6.832402802261544 48.66808794238423 0  -7.067305613159651 48.330150251551 0  -7.198286408716543 49.23361907288626 0  -7.798940292780165 49.4612731217888 0  -6.595388379519154 46.00564549066789 0  -7.431777744998789 45.89547805591681 0  -6.830456761107826 45.66766105441238 0  -7.065573575824792 45.32970565012221 0  -7.196664490360665 46.23342968169887 0  -7.797858399853441 46.46119249254335 0  -6.56745223179436 7.005853734888959 0  -7.413559905927643 6.895640705294693 0  -6.805255920704342 6.667930082957447 0  -7.043108037889068 6.330007931805524 0  -7.175711386759162 7.233562248436608 0  -7.783888850132229 7.461266111163811 0  -7.451223002690306 30.00315218636218 0  -6.610868056011769 30.11307008660647 0  -7.214992476915754 30.34094426019206 0  -6.978809521837422 30.67871725520663 0  -6.847053269266766 29.77525943611344 0  -6.242800102282627 29.54739706030457 0  -6.565361096021189 4.005575254349123 0  -7.412304735149768 4.11180795432073 0  -6.803795212711819 4.342416134857375 0  -7.042184558648723 4.679238395422045 0  -7.17391831596712 3.774973953785436 0  -7.78254593156634 3.544409722053729 0  -6.569581472033328 10.00590589787736 0  -7.415046991131581 10.11202891636434 0  -6.807607656526414 10.34267279948367 0  -7.045587996056986 10.67943978232548 0  -7.177063388970716 9.775267345341645 0  -7.784627352257345 9.544622302176437 0  -6.571715561950214 13.00595547215591 0  -7.41633816623301 12.89572271191354 0  -6.809099918292371 12.66803375096891 0  -7.046532418248492 12.33011404967623 0  -7.178908145929059 13.23365129963105 0  -7.786020005759688 13.4613300417011 0  -6.573857511678667 16.00604664407767 0  -7.417735699233854 15.89574901444716 0  -6.811031492859434 15.66813150096079 0  -7.048254258552099 15.33020184576581 0  -7.180516243414319 16.23365700838418 0  -7.787092891555435 16.46130151620497 0  -6.57601740569867 19.00541430629355 0  -7.41924636037753 19.111646088735 0  -6.81342110959897 19.34208549348542 0  -7.050775795084695 19.67879066303903 0  -7.181888201750289 18.77492378812102 0  -7.787842641581515 18.54441744191965 0  -6.581751229529082 27.00521142568123 0  -7.422985562581391 27.11151876965411 0  -6.818590532688844 27.34199636084308 0  -7.055382786095605 27.67878935566401 0  -7.186190737600661 26.77469394658806 0  -7.790712007945154 26.54422374283337 0  -8.273202792401056 19.09549617335172 0  -8.030542714927252 18.81994789898333 0  -8.393872410043469 18.272224431122 0  -8.636542087034313 18.54777269446678 0  -9 17.99999999998495 0  -8.274922242990149 27.09543216124817 0  -8.032836866540572 26.81982863977861 0  -8.395307595114424 26.27210673157553 0  -8.637402439069662 26.54771504935098 0  -9 25.99999999995395 0  -8.272514518659518 15.90789295591366 0  -8.029783835629686 16.18460043994257 0  -8.393594985784196 16.73063793247777 0  -8.636316085278203 16.45393716602017 0  -9 16.99999999998883 0  -5.759678860778942 30.10078664224505 0  -6.001218178265587 29.82408440357043 0  -5.638418299234082 29.27783299302417 0  -5.396864750642753 29.55479943501936 0  -5.03387335596614 29.00562330371129 0  -8.271871753600715 12.9078909306948 0  -8.028926140314379 13.18460929849282 0  -8.393058143931489 13.73066747115099 0  -8.635994341206015 13.45394819450009 0  -9 13.99999999999401 0  -8.271272068525935 10.09567548102974 0  -8.027969258627106 9.820149132267074 0  -8.392265545631739 9.272310208336371 0  -8.635577893916139 9.54783661460487 0  -9 8.99999999999857 0  -8.270015317501842 4.09557091825448 0  -8.02629850709123 3.819995040454995 0  -8.391233873329456 3.272196673826919 0  -8.634955711947891 3.547773751768449 0  -9 2.999999999998668 0  -8.270594857337411 6.907849889682518 0  -8.027222221795538 7.184556876862327 0  -8.391992352996933 7.730634752579536 0  -8.635355418275457 7.453928383439925 0  -9 7.999999999999485 0  -8.278970797195123 45.9077749630597 0  -8.038394779745998 46.18447722862889 0  -8.3989777152612 46.7306063789779 0  -8.639544102658133 46.45390468618345 0  -9 46.99999999997333 0  -8.279618126539855 48.90787230745088 0  -8.039259142973149 49.18457583585538 0  -8.399519023199252 49.73062334397481 0  -8.639868408765604 49.4539280053308 0  -9 49.99999999997949 0  -5.77221210390608 43.1008539570498 0  -6.012814905498561 42.82406711170611 0  -5.651415982358856 42.27764350123659 0  -5.41080018230682 42.5547249471345 0  -5.049203241843696 42.00539733734855 0  -5.749033992280408 23.92327483214943 0  -5.9962955075106 24.19040354700241 0  -5.636346531542669 24.73291262267021 0  -6.243515157905383 24.45755044213986 0  -5.389109573142465 24.46605099105647 0  -5.029271427813104 25.00560687020057 0  -8.284978480947409 52.08525128786785 0  -8.039942372847221 51.81808890785481 0  -8.397383491015599 51.27548656400824 0  -7.794866724904083 51.55094235400112 0  -8.642430790418675 51.54264859424774 0  -9 50.99999999998153 0  -5.762684553584915 38.09054991866052 0  -6.008428747045361 37.82216718717599 0  -5.648841940785471 37.28091692116571 0  -6.254214619415571 37.55380569459042 0  -5.403082056835577 37.54961751817554 0  -5.043289447747064 37.00514647939391 0  -5.759630184980073 34.92321953220461 0  -6.006088628950375 35.19030819891678 0  -5.647318691869014 35.7327477985945 0  -6.252505271768731 35.45741456005467 0  -5.400881216061995 35.46596526927847 0  -5.042231115157425 36.00535987611978 0  -7.900329583968136 50.50278732793757 0  -7.847589767037843 51.0268718926044 0  -8.450206070777483 50.7513788672649 0  -6.147218363725772 36.5055635661373 0  -6.200722889582728 37.02964939179563 0  -5.595258364768199 36.7563541297752 0  -6.199854938419339 35.98145388470805 0  -5.594758179547694 36.25629658329892 0  -5.999037865188549 25.26607729502033 0  -6.121263774159424 24.86182666129983 0  -5.514168331968838 25.1368698279569 0  -8.03482194643162 25.74783794304389 0  -7.912752578353287 26.14603066968144 0  -8.517429022506494 25.87391987054682 0  -6.963054146204321 34.38000788293878 0  -6.607721644337546 34.91874222354447 0  -6.862260406613379 35.24273782789711 0  -7.217599603010242 34.70404931905056 0  -7.47209545681254 35.02808085747657 0  -7.087691024059438 52.62819160619009 0  -7.441221111793308 52.08959665518076 0  -7.188013245696972 51.76568804287105 0  -6.834489208340539 52.30429971964158 0  -6.581237494984943 51.9804242163411 0  -6.965633810620176 38.62816794527907 0  -6.609982023027741 38.09101903969893 0  -6.863865980395011 37.76592424492761 0  -7.219511329659078 38.30312167762157 0  -7.473438322468759 37.97806374637921 0  -6.956394792913212 23.38003841360134 0  -6.599897414505801 23.91881332681708 0  -6.855266394854105 24.24283410313768 0  -7.211770750661995 23.70409815260167 0  -7.467097371274051 24.02814211449167 0  -7.889621834971371 17.5026376445102 0  -7.838724082804381 18.02353589156083 0  -8.444852118043961 17.75130344848282 0  -7.838365168087501 16.98197265749451 0  -8.44476973759628 17.25132728925391 0  -7.886683220747007 8.50269977925632 0  -7.835647538592482 9.023661567498456 0  -8.443382086903954 8.751350503792439 0  -7.932088396779133 2.417941955238543 0  -7.857300519945431 2.981168679077221 0  -8.46608267177375 2.70897894452951 0  -7.835293804264683 7.981984424845848 0  -8.443300938616353 8.251347986395738 0  -7.84964296166146 49.98203355679119 0  -8.450123249232284 50.25140226362207 0  -6.062869856998736 41.59856378284519 0  -6.158177924227721 42.07294860132946 0  -5.5560
[...]
<PointData  Vectors="f_27"> 
<DataArray  type="Float64"  Name="f_27"  NumberOfComponents="3" format="ascii">0.0000000000000000e+00 0.0000000000000000e+00 0.0000000000000000e+00  2.2493360807062394e-06 -7.6473128968851780e-03 0.0000000000000000e+00  0.0000000000000000e+00 0.0000000000000000e+00 0.0000000000000000e+00  0.0000000000000000e+00 0.0000000000000000e+00 0.0000000000000000e+00  -1.2811714128738533e-05 -1.0699519712479712e-02 0.0000000000000000e+00  6.7018474070640401e-09 -1.1010584361215119e-02 0.0000000000000000e+00  0.0000000000000000e+00 0.0000000000000000e+00 0.0000000000000000e+00  1.0262383055760442e-05 -7.7860004106022965e-03 0.0000000000000000e+00  0.0000000000000000e+00 0.0000000000000000e+00 0.0000000000000000e+00  0.0000000000000000e+00 0.0000000000000000e+00 0.0000000000000000e+00  3.3916352784108897e-05 -1.0678546176394358e-02 0.0000000000000000e+00  2.0907787634455143e-05 -1.1056633513128673e-02 0.0000000000000000e+00  0.0000000000000000e+00 0.0000000000000000e+00 0.0000000000000000e+00  9.4694093705204706e-06 -7.6234205407618993e-03 0.0000000000000000e+00  0.0000000000000000e+00 0.0000000000000000e+00 0.0000000000000000e+00  0.0000000000000000e+00 0.0000000000000000e+00 0.0000000000000000e+00  3.2834601961769599e-05 -1.0651212969238599e-02 0.0000000000000000e+00  2.0407814247093581e-05 -1.1030006089036993e-02 0.0000000000000000e+00  0.0000000000000000e+00 0.0000000000000000e+00 0.0000000000000000e+00  2.2393280609539264e-06 -8.0050780170886557e-03 0.0000000000000000e+00  0.0000000000000000e+00 0.0000000000000000e+00 0.0000000000000000e+00  0.0000000000000000e+00 0.0000000000000000e+00 0.0000000000000000e+00  -4.0196714938353266e-06 -1.0695513235712559e-02 0.0000000000000000e+00  4.2105807395907450e-06 -1.1058395501379110e-02 0.0000000000000000e+00  0.0000000000000000e+00 0.0000000000000000e+00 0.0000000000000000e+00  8.9422658066437363e-06 -7.9445222235748729e-03 0.0000000000000000e+00  3.3189502972313759e-05 -1.0631850733738579e-02 0.0000000000000000e+00  1.9071153054217538e-05 -1.0993092655069397e-02 0.0000000000000000e+00  0.0000000000000000e+00 0.0000000000000000e+00 0.0000000000000000e+00  0.0000000000000000e+00 0.0000000000000000e+00 0.0000000000000000e+00  0.0000000000000000e+00 0.0000000000000000e+00 0.0000000000000000e+00  6.1257841498112423e-06 -7.9320326022741944e-03 0.0000000000000000e+00  0.0000000000000000e+00 0.0000000000000000e+00 0.0000000000000000e+00  0.0000000000000000e+00 0.0000000000000000e+00 0.0000000000000000e+00  1.2849187917385200e-05 -1.0727091189305508e-02 0.0000000000000000e+00  1.1619175015484955e-05 -1.1018379643687111e-02 0.0000000000000000e+00  0.0000000000000000e+00 0.0000000000000000e+00 0.0000000000000000e+00  5.6086983142112591e-06 -7.5917637525434560e-03 0.0000000000000000e+00  -1.0545636782511278e-05 -1.0639389671319728e-02 0.0000000000000000e+00  1.4341358765725626e-06 -1.1012189546231012e-02 0.0000000000000000e+00  0.0000000000000000e+00 0.0000000000000000e+00 0.0000000000000000e+00  0.0000000000000000e+00 0.0000000000000000e+00 0.0000000000000000e+00  0.0000000000000000e+00 0.0000000000000000e+00 0.0000000000000000e+00  1.2642925016837586e-05 -7.7320287854324172e-03 0.0000000000000000e+00  0.0000000000000000e+00 0.0000000000000000e+00 0.0000000000000000e+00  0.0000000000000000e+00 0.0000000000000000e+00 0.0000000000000000e+00  4.8518043684844231e-07 -1.0759753019665501e-02 0.0000000000000000e+00  8.0364509641831485e-06 -1.1037403104943368e-02 0.0000000000000000e+00  0.0000000000000000e+00 0.0000000000000000e+00 0.0000000000000000e+00  1.5511406341772575e-05 -8.2352895298106622e-03 0.0000000000000000e+00  -4.5818529906217041e-07 -1.0663580748566350e-02 0.0000000000000000e+00  1.2279585669615760e-05 -1.1008948260349186e-02 0.0000000000000000e+00  0.0000000000000000e+00 0.0000000000000000e+00 0.0000000000000000e+00  0.0000000000000000e+00 0.0000000000000000e+00 0.0000000000000000e+00  0.0000000000000000e+00 0.0000000000000000e+00 0.0000000000000000e+00  -6.2165135997543930e-07 -8.2366759407961170e-03 0.0000000000000000e+00  1.8715865461206057e-05 -1.0662837893818229e-02 0.0000000000000000e+00  7.2441095771377861e-06 -1.1005090126832056e-02 0.0000000000000000e+00  0.0000000000000000e+00 0.0000000000000000e+00 0.0000000000000000e+00  0.0000000000000000e+00 0.0000000000000000e+00 0.0000000000000000e+00  1.5704849774798008e-05 -1.1323928704609413e-02 0.0000000000000000e+00  1.6336304480968973e-05 -1.1331662875566195e-02 0.0000000000000000e+00  1.4224974703592589e-05 -1.1332983303966412e-02 0.0000000000000000e+00  1.3196167247152290e-05 -1.1333402533425239e-02 0.0000000000000000e+00  1.5388812106393735e-05 -1.1331937887454626e-02 0.0000000000000000e+00  9.5107960006078456e-06 -1.1290838484452682e-02 0.0000000000000000e+00  2.0546354368661442e-05 -1.1306620768726502e-02 0.0000000000000000e+00  1.8852053141811391e-05 -1.1300766845566293e-02 0.0000000000000000e+00  2.0761126416303766e-05 -1.1315545155125945e-02 0.0000000000000000e+00  2.0422058217324616e-05 -1.1309681993434621e-02 0.0000000000000000e+00  1.7962276800146374e-05 -1.1313115640767089e-02 0.0000000000000000e+00  1.2429965588353197e-05 -1.1271576995707924e-02 0.0000000000000000e+00  1.2855642168468217e-05 -1.1314097912551700e-02 0.0000000000000000e+00  1.2042768995144979e-05 -1.1320071706639326e-02 0.0000000000000000e+00  1.1251290473880242e-05 -1.1324249824506380e-02 0.0000000000000000e+00  1.0463964593068055e-05 -1.1326967236809364e-02 0.0000000000000000e+00  1.2500895987223446e-05 -1.1318629970032872e-02 0.0000000000000000e+00  8.9878335425690847e-06 -1.1275720883182974e-02 0.0000000000000000e+00  1.4551612460186296e-05 -1.1384359313430467e-02 0.0000000000000000e+00  1.2401736105984051e-05 -1.1390952800702655e-02 0.0000000000000000e+00  1.3527270423290422e-05 -1.1394290302399848e-02 0.0000000000000000e+00  1.4392255394707712e-05 -1.1395410766798477e-02 0.0000000000000000e+00  1.2360260280174626e-05 -1.1391732241683888e-02 0.0000000000000000e+00  7.7712923781877657e-06 -1.1352763592557201e-02 0.0000000000000000e+00  1.2028907090868285e-05 -1.1342442443802577e-02 0.0000000000000000e+00  1.7379821924414655e-05 -1.1339593674676358e-02 0.0000000000000000e+00  1.1894031021372294e-05 -1.1355503118238474e-02 0.0000000000000000e+00  1.2262622884540869e-05 -1.1348082346091488e-02 0.0000000000000000e+00  1.5024888069646377e-05 -1.1349711829251671e-02 0.0000000000000000e+00  1.3127794134881472e-05 -1.1305681517288139e-02 0.0000000000000000e+00  1.8273269217767707e-05 -1.1393288918924386e-02 0.0000000000000000e+00  1.8016069537171063e-05 -1.1397394694816088e-02 0.0000000000000000e+00  1.8440767601852316e-05 -1.1401104774220173e-02 0.0000000000000000e+00  1.7321843402553474e-05 -1.1400061246284517e-02 0.0000000000000000e+00  1.8052293079644310e-05 -1.1399341792848058e-02 0.0000000000000000e+00  2.0936450950546000e-05 -1.1362128314582592e-02 0.0000000000000000e+00  2.1538471886918588e-05 -1.1380746620016853e-02 0.0000000000000000e+00  2.0614131035884139e-05 -1.1384353534515673e-02 0.0000000000000000e+00  2.0347068872345310e-05 -1.1388017963293681e-02 0.0000000000000000e+00  1.8868357202489721e-05 -1.1387251797879236e-02 0.0000000000000000e+00  2.2436712333927551e-05 -1.1386495413369805e-02 0.0000000000000000e+00  2.6746955202257201e-05 -1.1341978171543943e-02 0.0000000000000000e+00  1.5157975578810985e-05 -1.1371982323787187e-02 0.0000000000000000e+00  1.3991451038832272e-05 -1.1378542603660504e-02 0.0000000000000000e+00  1.4597256714981610e-05 -1.1382004996020578e-02 0.0000000000000000e+00  1.5744108099261022e-05 -1.1383250195394393e-02 0.0000000000000000e+00  1.3363308017755247e-05 -1.1378367693865733e-02 0.0000000000000000e+00  9.1946373128917070e-06 -1.1336353650944327e-02 0.0000000000000000e+00  1.9837386353212108e-05 -1.1368834594296124e-02 0.0000000000000000e+00  1.8278951416323570e-05 -1.1362616468031781e-02 0.0000000000000000e+00  2.0161284318300446e-05 -1.1377517086681818e-02 0.0000000000000000e+00  1.9948873357139683e-05 -1.1371530451852477e-02 0.0000000000000000e+00  1.7205862879110481e-05 -1.1375095957260805e-02 0.0000000000000000e+00  1.1758397232687190e-05 -1.1333418416649336e-02 0.0000000000000000e+00  2.7426282948315410e-05 -1.1362027117609417e-02 0.0000000000000000e+00  2.0681891372151089e-05 -1.1360102090902999e-02 0.0000000000000000e+00  2.5194234040536079e-05 -1.1374993467692643e-02 0.0000000000000000e+00  2.0703685344864042e-05 -1.1366646538718559e-02 0.0000000000000000e+00  2.4515704825428563e-05 -1.1372165717676954e-02 0.0000000000000000e+00  2.7068851933878660e-05 -1.1325327521221989e-02 0.0000000000000000e+00  2.2766180459954768e-05 -1.1345378395380867e-02 0.0000000000000000e+00  2.0166223468580069e-05 -1.1356059404921947e-02 0.0000000000000000e+00  2.2811043229670951e-05 -1.1358079955661866e-02 0.0000000000000000e+00  2.0199308011828913e-05 -1.1354042712066142e-02 0.0000000000000000e+00  1.9844982700500979e-05 -1.1356690487931078e-02 0.0000000000000000e+00  2.1497140330008699e-05 -1.1317570961013176e-02 0.0000000000000000e+00  1.2620222450529430e-05 -1.0652395883917752e-02 0.0000000000000000e+00  2.3487878009281488e-05 -1.1256463480527912e-02 0.0000000000000000e+00  3.1933942239385251e-05 -1.0773978759042104e-02 0.0000000000000000e+00  1.9385517929669420e-05 -7.6737802364101404e-03 0.0000000000000000e+00  0.0000000000000000e+00 0.0000000000000000e+00 0.0000000000000000e+00  1.4575334121775097e-05 -1.0648677089874532e-02 0.0000000000000000e+00  1.9250313751000272e-05 -1.1244702700248814e-02 0.0000000000000000e+00  2.3915708669727586e-05 -1.0765037309219121e-02 0.0000000000000000e+00  1.5348820647904222e-05 -7.6570726667320611e-03 0.0000000000000000e+00  0.0000000000000000e+00 0.0000000000000000e+00 0.0000000000000000e+00  1.3405187595420080e-05 -1.0668824612270835e-02 0.0000000000000000e+00  8.1706089443880745e-06 -1.1257535527937861e-02 0.0000000000000000e+00  -3.6658761448920116e-07 -1.0845931145138540e-02 0.0000000000000000e+00  -3.6098462320387100e-06 -7.6030384496033505e-03 0.0000000000000000e+00  0.0000000000000000e+00 0.0000000000000000e+00 0.0000000000000000e+00  2.1431595065374104e-05 -1.0633978552523619e-02 0.0000000000000000e+00  2.3561672995441449e-05 -1.1233392893580274e-02 0.0000000000000000e+00  4.2544169819349592e-06 -1.0764567643523572e-02 0.0000000000000000e+00  5.0746367922931006e-06 -7.6606187543712713e-03 0.0000000000000000e+00  0.0000000000000000e+00 0.0000000000000000e+00 0.0000000000000000e+00  1.4276815865185898e-05 -1.0668288796301068e-02 0.0000000000000000e+00  9.5878520235469167e-06 -1.1263343298819787e-02 0.0000000000000000e+00  2.4178972170964547e-06 -1.0788679792311977e-02 0.0000000000000000e+00  3.4672750519095648e-06 -7.6786389819391860e-03 0.0000000000000000e+00  0.0000000000000000e+00 0.0000000000000000e+00 0.0000000000000000e+00  1.7449933349225261e-05 -1.0671206986174804e-02 0.0000000000000000e+00  2.5044308311159134e-05 -1.1269735298678953e-02 0.0000000000000000e+00  3.2349050614379439e-05 -1.0787600279252492e-02 0.0000000000000000e+00  2.0786784982907276e-05 -7.6888104006857154e-03 0.0000000000000000e+00  0.0000000000000000e+00 0.0000000000000000e+00 0.0000000000000000e+00  1.7627807662277243e-05 -1.0700209861321031e-02 0.0000000000000000e+00  2.2540001369397899e-05 -1.1282671626403257e-02 0.0000000000000000e+00  2.8136055144904410e-05 -1.0874270673588468e-02 0.0000000000000000e+00  2.3215015522265389e-05 -7.6308924804632076e-03 0.0000000000000000e+00  0.0000000000000000e+00 0.0000000000000000e+00 0.0000000000000000e+00  8.9158013226233787e-06 -1.0693524618648672e-02 0.0000000000000000e+00  4.5610813272747631e-06 -1.1274801651766284e-02 0.0000000000000000e+00  -2.7175312852707673e-06 -1.0861792222090026e-02 0.0000000000000000e+00  -5.2350315973516220e-06 -7.6210474432308484e-03 0.0000000000000000e+00  0.0000000000000000e+00 0.0000000000000000e+00 0.0000000000000000e+00  1.5196434533675316e-05 -1.0604329560044982e-02 0.0000000000000000e+00  9.6933376678806529e-06 -1.1201444122534850e-02 0.0000000000000000e+00  2.7851076045891375e-06 -1.0729297512170726e-02 0.0000000000000000e+00  3.7243715690913038e-06 -7.6129403615025773e-03 0.0000000000000000e+00  0.0000000000000000e+00 0.0000000000000000e+00 0.0000000000000000e+00  1.3792909641641511e-05 -1.0604556209014598e-02 0.0000000000000000e+00  8.7756199827017483e-06 -1.1194936117650574e-02 0.0000000000000000e+00  4.5702655770104493e-07 -1.0786005128832821e-02 0.0000000000000000e+00  -3.0340908288026523e-06 -7.5378112812229019e-03 0.0000000000000000e+00  0.0000000000000000e+00 0.0000000000000000e+00 0.0000000000000000e+00  1.8176256219516036e-05 -1.0617604115109969e-02 0.0000000000000000e+00  1.9483236756455173e-05 -1.1215676672461537e-02 0.0000000000000000e+00  -3.2558036323606504e-06 -1.0745074847180937e-02 0.0000000000000000e+00  2.4971367259410078e-06 -7.6412929328695030e-03 0.0000000000000000e+00  0.0000000000000000e+00 0.0000000000000000e+00 0.0000000000000000e+00  1.9247211224097899e-05 -1.0694332848514648e-02 0.0000000000000000e+00  3.0146076264745867e-05 -1.1255982533959605e-02 0.0000000000000000e+00  2.3331940379712943e-05 -1.0754905610348005e-02 0.0000000000000000e+00  2.2021860107756828e-05 -1.1318015079915072e-02 0.0000000000000000e+00  1.5665269950137049e-05 -7.6680278720695294e-03 0.0000000000000000e+00  0.0000000000000000e+00 0.0000000000000000e+00 0.0000000000000000e+00  1.6372055172781645e-05 -1.0634765119229365e-02 0.0000000000000000e+00  2.5417811750600539e-05 -1.1199111725917962e-02 0.0000000000000000e+00  3.2270683213528349e-05 -1.0713162939885513e-02 0.0000000000000000e+00  2.6513662035866972e-05 -1.1259220010449397e-02 0.0000000000000000e+00  1.9261492004824937e-05 -7.6305140865586237e-03 0.0000000000000000e+00  0.0000000000000000e+00 0.0000000000000000e+00 0.0000000000000000e+00  1.6635664518338094e-05 -1.0665391902084525e-02 0.0000000000000000e+00  1.5838518077358364e-05 -1.1224651741037428e-02 0.0000000000000000e+00  -5.7280363188892151e-06 -1.0751984584173035e-02 0.0000000000000000e+00  7.6474984371046511e-06 -1.1287987181764918e-02 0.0000000000000000e+00  1.5062264590305743e-06 -7.6755182196061181e-03 0.0000000000000000e+00  0.0000000000000000e+00 0.0000000000000000e+00 0.0000000000000000e+00  2.7929520776840827e-05 -1.0689498705403758e-02 0.0000000000000000e+00  3.8971904834047346e-05 -1.1233267225547851e-02 0.0000000000000000e+00  3.0474508087434257e-05 -1.0806637470623770e-02 0.0000000000000000e+00  2.7197552648003648e-05 -1.1301566011588812e-02 0.0000000000000000e+00  2.5706262215498020e-05 -7.5732361191577519e-03 0.0000000000000000e+00  0.0000000000000000e+00 0.0000000000000000e+00 0.0000000000000000e+00  1.9756726315858801e-05 -1.0839911013734599e-02 0.0000000000000000e+00  2.7595027170335507e-05 -1.1260571412405189e-02 0.0000000000000000e+00  3.6143150609046457e-05 -1.0449264909303793e-02 0.0000000000000000e+00  1.1884975004369406e-06 -1.0868636891608260e-02 0.0000000000000000e+00  1.4093076261936183e-06 -1.1288153647325940e-02 0.0000000000000000e+00  -2.4623621606788569e-05 -1.0479117238998357e-02 0.0000000000000000e+00  2.2389564743880318e-05 -1.1249632487662932e-02 0.0000000000000000e+00  -2.0453109933070436e-06 -7.2717238369143684e-03 0.0000000000000000e+00  1.1379288344499887e-05 -1.1006368580948372e-02 0.0000000000000000e+00  1.8778366811092438e-05 -1.1316966607726459e-02 0.0000000000000000e+00  1.0992507031054928e-05 -1.0558282268537654e-02 0.0000000000000000e+00  2.0310826068744025e-05 -1.0963186206529528e-02 0.0000000000000000e+00  2.0698619676584667e-05 -1.1309196652692631e-02 0.0000000000000000e+00  2.6987132310119804e-05 -1.0560140635355857e-02 0.0000000000000000e+00  2.1377001323726399e-05 -1.1344970723377036e-02 0.0000000000000000e+00  2.4835929478636550e-05 -1.1331606583299687e-02 0.0000000000000000e+00  2.2627983529462370e-05 -1.1345199154601939e-02 0.0000000000000000e+00  2.2055335230268093e-05 -1.1347025177740354e-02 0.0000000000000000e+00  2.0519040534012397e-05 -1.1336153411227947e-02 0.0000000000000000e+00  2.0942829162612187e-05 -1.1299916430184753e-02 0.0000000000000000e+00  1.8350138394541489e-05 -1.1284225435380230e-02 0.0000000000000000e+00  2.2770216228412732e-05 -1.1308463687762350e-02 0.0000000000000000e+00  2.2851605836801762e-05 -1.1310110108009811e-02 0.0000000000000000e+00  2.3338729270381380e-05 -1.1294128597240253e-02 0.0000000000000000e+00  1.4535855833119970e-05 -1.1337029998304493e-02 0.0000000000000000e+00  1.7842075048867501e-05 -1.1322681581268632e-02 0.0000000000000000e+00  1.2877910602741738e-05 -1.1336845084258909e-02 0.0000000000000000e+00  1.3825828606683483e-05 -1.1339986502785771e-02 0.0000000000000000e+00  1.1562918083232436e-05 -1.1330253393131288e-02 0.0000000000000000e+00  1.7273444278832475e-05 -1.1363996914309333e-02 0.0000000000000000e+00  1.9348659356268852e-05 -1.1352758307410560e-02 0.0000000000000000e+00  1.7220411019072480e-05 -1.1363528182918532e-02 0.0000000000000000e+00  1.7620682347171839e-05 -1.1365360445019190e-02 0.0000000000000000e+00  1.4771134339104039e-05 -1.1349010080941982e-02 0.0000000000000000e+00  1.9330245522086849e-05 -1.0901599689961338e-02 0.0000000000000000e+00  2.7587073198932317e-05 -1.1323036053684303e-02 0.0000000000000000e+00  3.6244285187784020e-05 -1.0512199402640808e-02 0.0000000000000000e+00  9.0883799313312943e-06 -1.1282451418018809e-02 0.0000000000000000e+00  6.4912894176463861e-06 -7.2958177571465490e-03 0.0000000000000000e+00  1.7939354819462896e-05 -1.0918290707244916e-02 0.0000000000000000e+00  2.6678213551199627e-05 -1.1337818433328404e-02 0.0000000000000000e+00  3.5916389197492647e-05 -1.0526948592351159e-02 0.0000000000000000e+00  1.5551079465289479e-05 -1.1009269426456371e-02 0.0000000000000000e+00  2.0697073386478984e-05 -1.1315602558618588e-02 0.0000000000000000e+00  1.2268247641113103e-05 -7.3930542069092480e-03 0.0000000000000000e+00  6.4976012807148186e-06 -1.1298860157610233e-02 0.0000000000000000e+00  5.7360584668911904e-06 -7.3098371535284855e-03 0.0000000000000000e+00  9.7092257422487614e-06 -1.1220052874795968e-02 0.0000000000000000e+00  6.9710579617069002e-06 -7.2395868539813371e-03 0.0000000000000000e+00  -8.9680025731640900e-06 -1.0919876776965575e-02 0.0000000000000000e+00  1.6577066792382257e-06 -1.1289014307530817e-02 0.0000000000000000e+00  -2.5692325941187591e-05 -1.0487710790156817e-02 0.0000000000000000e+00  1.3666751502535520e-05 -1.1361781363750574e-02 0.0000000000000000e+00  1.7160456168237368e-05 -1.1366654692884325e-02 0.0000000000000000e+00  1.3905283115345647e-05 -1.1364939380198252e-02 0.0000000000000000e+00  2.3270579813240954e-05 -1.1311909080057289e-02 0.0000000000000000e+00  2.4667668785478260e-05 -1.1313023169961158e-02 0.0000000000000000e+00  2.2577416453243449e-05 -1.1312851739369845e-02 0.0000000000000000e+00  1.0617042653315853e-05 -1.1339155752292565e-02 0.0000000000000000e+00  9.0257058594548609e-06 -1.1339504433973462e-02 0.0000000000000000e+00  1.1824583782841298e-05 -1.1340798173362109e-02 0.0000000000000000e+00  1.9618177597407979e-05 -1.1345164161982444e-02 0.0000000000000000e+00  2.2364317647503679e-05 -1.1346783762780739e-02 0.0000000000000000e+00  2.0646901395327742e-05 -1.1346825163402043e-02 0.0000000000000000e+00  -1.9133187980826439e-06 -1.0959358630990963e-02 0.0000000000000000e+00  7.7387632893441661e-06 -1.1301208024963127e-02 0.0000000000000000e+00  -1.6411407408644909e-05 -1.0538629240513507e-02 0.0000000000000000e+00  1.7020917014264311e-05 -1.1291301824834440e-02 0.0000000000000000e+00  1.7816498060580243e-05 -1.1280684982595183e-02 0.0000000000000000e+00  1.5728473981710108e-05 -1.1332929206360453e-02 0.0000000000000000e+00  2.3485010086623349e-05 -1.1014408360152259e-02 0.0000000000000000e+00  1.6918864649479409e-05 -1.1248098998471567e-02 0.0000000000000000e+00  2.0701270729500271e-05 -1.1299761126645090e-02 0.0000000000000000e+00  1.5118830596972520e-05 -1.1281008761169619e-02 0.0000000000000000e+00  1.2854717616116776e-05 -1.1267280990074754e-02 0.0000000000000000e+00  1.2613886045685499e-05 -1.1321830739357