<?xml version="1.0"?>
<VTKFile type="UnstructuredGrid"  version="0.1"  >
<UnstructuredGrid>
<Piece  NumberOfPoints="2530" NumberOfCells="4544">
<Points>
<DataArray  type="Float64"  NumberOfComponents="3"  format="ascii">-0.005 0.02899999999991747 0  -0.005567606561449265 0.02972952735170602 0  -0.005567606561449265 0.02922952735170672 0  -0.006135213122898529 0.02945905470349596 0  -0.005 0.02949999999991678 0  -0.005 0.02999999999991609 0  -0.008999999999999999 0.02999999999991609 0  -0.008477881325601233 0.02929081058473642 0  -0.008999999999999999 0.02949999999991678 0  -0.008999999999999999 0.02899999999991747 0  -0.008477881325601233 0.02979081058473573 0  -0.007955762651202469 0.02958162116955536 0  -0.008999999999999999 0.05699999999999127 0  -0.008455575182696982 0.05771508614433647 0  -0.008455575182696982 0.05721508614433456 0  -0.007911150365393967 0.05743017228867785 0  -0.008999999999999999 0.05749999999999318 0  -0.008999999999999999 0.05799999999999508 0  -0.006562500000003323 0.04699999999996404 0  -0.007410380031513026 0.04710817040743875 0  -0.006801005031513838 0.04733733707410809 0  -0.007039510063024354 0.04767467414825214 0  -0.007171875000002511 0.0467708333332947 0  -0.007781250000001699 0.04654166666662536 0  -0.006562499999996975 0.007999999999982715 0  -0.007410380031513406 0.007891829592506899 0  -0.006801005031512716 0.007662662925842622 0  -0.007039510063028456 0.007325325851702528 0  -0.007171874999997664 0.008229166666646992 0  -0.007781249999998355 0.008458333333311269 0  -0.006562499999996577 0.01099999999997411 0  -0.007410380031513544 0.01110817040744999 0  -0.006801005031512696 0.01133733707411394 0  -0.007039510063028815 0.01167467414825377 0  -0.007171874999997425 0.01077083333331016 0  -0.007781249999998272 0.01054166666664622 0  -0.005 0.02399999999993442 0  -0.005590674212597458 0.02326230314954376 0  -0.005 0.02349999999993588 0  -0.005 0.02299999999993733 0  -0.005590674212597458 0.02376230314954231 0  -0.006181348425194916 0.0235246062991502 0  -0.005 0.02099999999994222 0  -0.005564630812322937 0.0217315610722294 0  -0.005564630812322937 0.02123156107223086 0  -0.006129261624645875 0.0214631221445195 0  -0.005 0.02149999999994076 0  -0.005 0.0219999999999393 0  -0.008999999999999999 0.01999999999994686 0  -0.008409325787402531 0.01926230314955595 0  -0.008999999999999999 0.01949999999994807 0  -0.008999999999999999 0.01899999999994928 0  -0.008409325787402531 0.01976230314955475 0  -0.007818651574805061 0.01952460629916263 0  -0.008999999999999999 0.02499999999992978 0  -0.008409325787402541 0.02573769685032071 0  -0.008409325787402541 0.02523769685032191 0  -0.007818651574805081 0.02547539370071405 0  -0.008999999999999999 0.02549999999992857 0  -0.008999999999999999 0.02599999999992736 0  -0.008999999999999999 0.01599999999995916 0  -0.008409325787402512 0.01526230314956849 0  -0.008999999999999999 0.01549999999996053 0  -0.008999999999999999 0.0149999999999619 0  -0.008409325787402512 0.01576230314956713 0  -0.007818651574805024 0.01552460629917509 0  -0.008999999999999999 0.01799999999995125 0  -0.008435915727826615 0.01725427993967504 0  -0.008999999999999999 0.01749999999995307 0  -0.008999999999999999 0.01699999999995488 0  -0.008435915727826615 0.01775427993967323 0  -0.007871831455653231 0.0175085598793952 0  -0.008999999999999999 0.02699999999992539 0  -0.008434239959724898 0.02774706184850321 0  -0.008434239959724898 0.02724706184850503 0  -0.007868479919449797 0.02749412369708466 0  -0.008999999999999999 0.02749999999992357 0  -0.008999999999999999 0.02799999999992175 0  -0.008999999999999999 0.01399999999996497 0  -0.008437765310767197 0.0132645357198448 0  -0.008999999999999999 0.01349999999996647 0  -0.008999999999999999 0.01299999999996796 0  -0.008437765310767197 0.0137645357198433 0  -0.007875530621534396 0.01352907143972163 0  -0.005 0.002999999999993196 0  -0.005590674212597853 0.003737696850384681 0  -0.005590674212597853 0.003237696850385873 0  -0.006181348425195706 0.00347539370077855 0  -0.005 0.003499999999992004 0  -0.005 0.003999999999990813 0  -0.005 0.004999999999989164 0  -0.005559084057905018 0.005728935712846076 0  -0.005559084057905018 0.005228935712846881 0  -0.006118168115810037 0.005457871425704597 0  -0.005 0.00549999999998836 0  -0.005 0.005999999999987554 0  -0.005 0.05299999999997999 0  -0.005590674212599118 0.05373769685037712 0  -0.005590674212599118 0.05323769685037585 0  -0.006181348425198237 0.05347539370077171 0  -0.005 0.05349999999998126 0  -0.005 0.05399999999998254 0  -0.008999999999999999 0.05199999999997907 0  -0.008409325787400907 0.05126230314958195 0  -0.008999999999999999 0.0514999999999778 0  -0.008999999999999999 0.05099999999997653 0  -0.008409325787400907 0.05176230314958322 0  -0.007818651574801817 0.05152460629918738 0  -0.005 0.03699999999993814 0  -0.005590674212599064 0.03626230314954104 0  -0.005 0.03649999999993686 0  -0.005 0.03599999999993558 0  -0.005590674212599064 0.03676230314954232 0  -0.006181348425198127 0.03652460629914649 0  -0.005 0.03799999999993905 0  -0.005590674212599059 0.03873769685033618 0  -0.005590674212599059 0.0382376968503349 0  -0.006181348425198119 0.03847539370073075 0  -0.005 0.03849999999994033 0  -0.005 0.0389999999999416 0  -0.008999999999999999 0.04499999999995907 0  -0.008409325787400921 0.04426230314956281 0  -0.008999999999999999 0.04449999999995852 0  -0.008999999999999999 0.04399999999995796 0  -0.008409325787400921 0.04476230314956336 0  -0.007818651574801844 0.04452460629916766 0  -0.005 0.05499999999998635 0  -0.005561924071815199 0.05574035198473451 0  -0.005561924071815199 0.05524035198473292 0  -0.006123848143630398 0.05548070396947949 0  -0.005 0.05549999999998795 0  -0.005 0.05599999999998954 0  -0.008999999999999999 0.04999999999997271 0  -0.008437330811979935 0.04925705943891855 0  -0.008999999999999999 0.04949999999997112 0  -0.008999999999999999 0.04899999999996952 0  -0.008437330811979935 0.04975705943892015 0  -0.00787466162395987 0.04951411887786759 0  -0.005 0.03499999999993177 0  -0.005554118008684467 0.03427588870688815 0  -0.005 0.03449999999993018 0  -0.005 0.03399999999992859 0  -0.005554118008684467 0.03477588870688975 0  -0.006108236017368934 0.03455177741384772 0  -0.005 0.03999999999994542 0  -0.005565787062146483 0.04074708348495108 0  -0.005565787062146483 0.0402470834849495 0  -0.006131574124292967 0.04049416696995358 0  -0.005 0.04049999999994701 0  -0.005 0.04099999999994859 0  -0.008999999999999999 0.04299999999995415 0  -0.008434212937853522 0.04225291651494782 0  -0.008999999999999999 0.04249999999995224 0  -0.008999999999999999 0.04199999999995033 0  -0.008434212937853522 0.04275291651494972 0  -0.007868425875707045 0.0425058330299453 0  -0.008249816699198017 0.05835749671693449 0  -0.008080483532295991 0.05789383450280617 0  -0.008624908349599008 0.05817874835846479 0  -0.005 0.05699999999999127 0  -0.005564814814815426 0.05763425925925437 0  -0.005564814814815426 0.05713425925925246 0  -0.006129629629630853 0.05726851851851365 0  -0.005 0.05749999999999318 0  -0.005 0.05799999999999508 0  -0.007812500000000279 0.05881250000000175 0  -0.007487215909092686 0.05955539772727215 0  -0.007906250000003019 0.05940625000000088 0  -0.008000000000005759 0.06 0  -0.007393465909089946 0.05896164772727303 0  -0.006974431818179612 0.0591107954545443 0  -0.008269129548671622 0.01109390078343537 0  -0.008025189774334947 0.0108177837250408 0  -0.008390624999999135 0.01027083333331175 0  -0.008634564774335812 0.01054695039170632 0  -0.008999999999999999 0.009999999999977279 0  -0.008269129548671525 0.007906099216521786 0  -0.00802518977433494 0.008182216274916528 0  -0.008390624999999177 0.008729166666645676 0  -0.008634564774335763 0.008453049608250935 0  -0.008999999999999999 0.008999999999980083 0  -0.008269129548669827 0.04709390078342088 0  -0.008025189774335762 0.04681778372502312 0  -0.008390625000000849 0.04627083333329277 0  -0.008634564774334913 0.04654695039169052 0  -0.008999999999999999 0.04599999999996016 0  -0.008273872863797757 0.03191632356681653 0  -0.008025109529492163 0.03218405924682916 0  -0.008388173097593283 0.03272589746338432 0  -0.007776346195186568 0.03245179492684179 0  -0.008636936431898879 0.03245816178337169 0  -0.008999999999999999 0.03299999999992685 0  -0.008017414784897241 0.03353452586113938 0  -0.007896880490041905 0.03299316039399058 0  -0.00850870739244862 0.03326726293053311 0  -0.007057671392325 0.03137590312127503 0  -0.007417008793755784 0.03191384902405841 0  -0.007160048097594804 0.03223839746338272 0  -0.00680071069616402 0.03170045156059935 0  -0.006543750000003041 0.03202499999992366 0  -0.007883928571428122 0.00949999999997868 0  -0.007832589285713197 0.01002083333331245 0  -0.00844196428571406 0.009749999999977979 0  -0.007832589285713239 0.008979166666644976 0  -0.00844196428571406 0.009249999999979382 0  -0.007040819314031163 0.03285586844587998 0  -0.007408582754608865 0.03265383168636089 0  -0.006792284657017102 0.03244043422290183 0  -0.005872353521460591 0.05810919245179558 0  -0.006000991575545722 0.05768885548515462 0  -0.005436176760730296 0.05805459622589533 0  -0.00786502184884123 0.04771008739533377 0  -0.007823135924421465 0.04712587703097956 0  -0.007452265955932792 0.04769238077179296 0  -0.007865021848844505 0.007289912604609198 0  -0.00782313592442143 0.007874122968960234 0  -0.007452265955936481 0.007307619228155863 0  -0.007865021848844829 0.01171008739534793 0  -0.007823135924421552 0.01112587703099708 0  -0.007452265955936822 0.01169238077180085 0  -0.008184288543895116 0.02249999999993832 0  -0.007988733012405148 0.02298711832054615 0  -0.007383909739089816 0.02298711832054615 0  -0.007793177480915178 0.02347423664115397 0  -0.007579465270579786 0.02249999999993833 0  -0.006974641997264455 0.02249999999993833 0  -0.007988733012405137 0.02201288167933051 0  -0.007383909739089808 0.02201288167933051 0  -0.007793177480915159 0.02152576335872269 0  -0.005819248789178329 0.02649
[...]
<PointData  Vectors="f_23"> 
<DataArray  type="Float64"  Name="f_23"  NumberOfComponents="3" format="ascii">0.0000000000000000e+00 0.0000000000000000e+00 0.0000000000000000e+00  8.4125348985751899e-11 -3.0342443506633718e-04 0.0000000000000000e+00  1.5968220354527689e-10 -4.4164515387813084e-04 0.0000000000000000e+00  9.6778083007847488e-11 -4.5594638919929192e-04 0.0000000000000000e+00  0.0000000000000000e+00 0.0000000000000000e+00 0.0000000000000000e+00  0.0000000000000000e+00 0.0000000000000000e+00 0.0000000000000000e+00  0.0000000000000000e+00 0.0000000000000000e+00 0.0000000000000000e+00  -1.3462717101027175e-10 -3.1764301714973622e-04 0.0000000000000000e+00  0.0000000000000000e+00 0.0000000000000000e+00 0.0000000000000000e+00  0.0000000000000000e+00 0.0000000000000000e+00 0.0000000000000000e+00  -5.3997093769368780e-12 -4.3764703986780355e-04 0.0000000000000000e+00  -1.7513430467109871e-10 -4.5406502862483517e-04 0.0000000000000000e+00  0.0000000000000000e+00 0.0000000000000000e+00 0.0000000000000000e+00  4.9258946282026519e-10 -3.0183340960872915e-04 0.0000000000000000e+00  -1.5816801106879505e-08 -4.4143342568092272e-04 0.0000000000000000e+00  -1.6662822394948029e-08 -4.5513726167995927e-04 0.0000000000000000e+00  0.0000000000000000e+00 0.0000000000000000e+00 0.0000000000000000e+00  0.0000000000000000e+00 0.0000000000000000e+00 0.0000000000000000e+00  -1.3391605079071208e-10 -4.7029778649812824e-04 0.0000000000000000e+00  -2.6501840336489906e-10 -4.7087476951409961e-04 0.0000000000000000e+00  3.1400516252819088e-10 -4.7097937911178391e-04 0.0000000000000000e+00  5.3218948933373662e-10 -4.7094402992654431e-04 0.0000000000000000e+00  -4.9675470463846586e-10 -4.7085657466019890e-04 0.0000000000000000e+00  -4.6055825680319086e-10 -4.6864217674213353e-04 0.0000000000000000e+00  1.1979127680274378e-10 -4.7033058863787258e-04 0.0000000000000000e+00  7.4318835721337478e-11 -4.7088512486354793e-04 0.0000000000000000e+00  -1.8976144053733774e-10 -4.7098159095117421e-04 0.0000000000000000e+00  -1.4540032553392276e-10 -4.7095870352522267e-04 0.0000000000000000e+00  3.7642451347166132e-10 -4.7087077844383660e-04 0.0000000000000000e+00  -5.3187719119893459e-11 -4.6852656116384221e-04 0.0000000000000000e+00  -1.3669543088533983e-10 -4.7033542320167022e-04 0.0000000000000000e+00  -4.4729571496382169e-10 -4.7088179361054526e-04 0.0000000000000000e+00  -2.4730925939076603e-10 -4.7098272164675678e-04 0.0000000000000000e+00  -2.8306405264053345e-10 -4.7094317037340292e-04 0.0000000000000000e+00  -2.7490865292180719e-10 -4.7089953144280588e-04 0.0000000000000000e+00  -6.1366254257121015e-10 -4.6885935006285757e-04 0.0000000000000000e+00  0.0000000000000000e+00 0.0000000000000000e+00 0.0000000000000000e+00  1.9435407990465209e-10 -3.1342343229581932e-04 0.0000000000000000e+00  0.0000000000000000e+00 0.0000000000000000e+00 0.0000000000000000e+00  0.0000000000000000e+00 0.0000000000000000e+00 0.0000000000000000e+00  3.9898231050639584e-10 -4.4209180807353423e-04 0.0000000000000000e+00  2.2283186384458554e-10 -4.5527432467306191e-04 0.0000000000000000e+00  0.0000000000000000e+00 0.0000000000000000e+00 0.0000000000000000e+00  2.7820052660671799e-10 -3.1729014949032118e-04 0.0000000000000000e+00  4.2298635588571284e-10 -4.4200077435767408e-04 0.0000000000000000e+00  5.4738052414066035e-10 -4.5611790763722891e-04 0.0000000000000000e+00  0.0000000000000000e+00 0.0000000000000000e+00 0.0000000000000000e+00  0.0000000000000000e+00 0.0000000000000000e+00 0.0000000000000000e+00  0.0000000000000000e+00 0.0000000000000000e+00 0.0000000000000000e+00  1.7012765645574425e-11 -3.1214575215153479e-04 0.0000000000000000e+00  0.0000000000000000e+00 0.0000000000000000e+00 0.0000000000000000e+00  0.0000000000000000e+00 0.0000000000000000e+00 0.0000000000000000e+00  1.4954650419814304e-10 -4.4204909909791983e-04 0.0000000000000000e+00  4.3271813600069034e-11 -4.5537733524394174e-04 0.0000000000000000e+00  0.0000000000000000e+00 0.0000000000000000e+00 0.0000000000000000e+00  3.3043771647618600e-11 -3.1560088403941776e-04 0.0000000000000000e+00  -1.8360146448680167e-10 -4.4189327464483656e-04 0.0000000000000000e+00  -2.3755460660167314e-10 -4.5559316157379174e-04 0.0000000000000000e+00  0.0000000000000000e+00 0.0000000000000000e+00 0.0000000000000000e+00  0.0000000000000000e+00 0.0000000000000000e+00 0.0000000000000000e+00  0.0000000000000000e+00 0.0000000000000000e+00 0.0000000000000000e+00  3.8405429915193738e-10 -3.1314653839680683e-04 0.0000000000000000e+00  0.0000000000000000e+00 0.0000000000000000e+00 0.0000000000000000e+00  0.0000000000000000e+00 0.0000000000000000e+00 0.0000000000000000e+00  4.3772443466796766e-10 -4.4124122557986651e-04 0.0000000000000000e+00  5.0937688145929819e-10 -4.5467412245458940e-04 0.0000000000000000e+00  0.0000000000000000e+00 0.0000000000000000e+00 0.0000000000000000e+00  2.9229238120869465e-11 -3.1331164830163984e-04 0.0000000000000000e+00  0.0000000000000000e+00 0.0000000000000000e+00 0.0000000000000000e+00  0.0000000000000000e+00 0.0000000000000000e+00 0.0000000000000000e+00  -1.3768447640315279e-10 -4.4141026837801826e-04 0.0000000000000000e+00  -8.4373097717838463e-11 -4.5553913438411715e-04 0.0000000000000000e+00  0.0000000000000000e+00 0.0000000000000000e+00 0.0000000000000000e+00  -2.3166955627177346e-10 -3.2660675088991460e-04 0.0000000000000000e+00  -1.4990787087237019e-10 -4.3862434036089922e-04 0.0000000000000000e+00  -4.4861975525261552e-10 -4.5484525558912593e-04 0.0000000000000000e+00  0.0000000000000000e+00 0.0000000000000000e+00 0.0000000000000000e+00  0.0000000000000000e+00 0.0000000000000000e+00 0.0000000000000000e+00  0.0000000000000000e+00 0.0000000000000000e+00 0.0000000000000000e+00  8.2088658134953960e-11 -3.0613328538177360e-04 0.0000000000000000e+00  0.0000000000000000e+00 0.0000000000000000e+00 0.0000000000000000e+00  0.0000000000000000e+00 0.0000000000000000e+00 0.0000000000000000e+00  3.4963284521886870e-10 -4.4093413805033042e-04 0.0000000000000000e+00  2.3901115456765266e-10 -4.5480695871737451e-04 0.0000000000000000e+00  0.0000000000000000e+00 0.0000000000000000e+00 0.0000000000000000e+00  -3.4868596358030028e-11 -3.1551023184870947e-04 0.0000000000000000e+00  1.2251153172305686e-10 -4.4222584052001907e-04 0.0000000000000000e+00  1.4859525769410181e-11 -4.5565292116860040e-04 0.0000000000000000e+00  0.0000000000000000e+00 0.0000000000000000e+00 0.0000000000000000e+00  0.0000000000000000e+00 0.0000000000000000e+00 0.0000000000000000e+00  0.0000000000000000e+00 0.0000000000000000e+00 0.0000000000000000e+00  -1.9214003254558808e-10 -3.0455477858281688e-04 0.0000000000000000e+00  -2.6141515623601198e-10 -4.3771890096301754e-04 0.0000000000000000e+00  -2.3219625732231050e-10 -4.5365849599006511e-04 0.0000000000000000e+00  0.0000000000000000e+00 0.0000000000000000e+00 0.0000000000000000e+00  0.0000000000000000e+00 0.0000000000000000e+00 0.0000000000000000e+00  0.0000000000000000e+00 0.0000000000000000e+00 0.0000000000000000e+00  4.7540305979762532e-10 -3.1343356591010345e-04 0.0000000000000000e+00  1.1617233111563460e-09 -4.4210006994956590e-04 0.0000000000000000e+00  1.1843218622440009e-09 -4.5532094970086715e-04 0.0000000000000000e+00  0.0000000000000000e+00 0.0000000000000000e+00 0.0000000000000000e+00  0.0000000000000000e+00 0.0000000000000000e+00 0.0000000000000000e+00  0.0000000000000000e+00 0.0000000000000000e+00 0.0000000000000000e+00  6.9004698394805562e-10 -3.1559800269542195e-04 0.0000000000000000e+00  0.0000000000000000e+00 0.0000000000000000e+00 0.0000000000000000e+00  0.0000000000000000e+00 0.0000000000000000e+00 0.0000000000000000e+00  1.4620751347656532e-09 -4.4189500345772470e-04 0.0000000000000000e+00  1.8937400499784852e-09 -4.5559798631761501e-04 0.0000000000000000e+00  0.0000000000000000e+00 0.0000000000000000e+00 0.0000000000000000e+00  1.7351911532889365e-10 -3.1129243642861359e-04 0.0000000000000000e+00  0.0000000000000000e+00 0.0000000000000000e+00 0.0000000000000000e+00  0.0000000000000000e+00 0.0000000000000000e+00 0.0000000000000000e+00  4.1530988467444910e-10 -4.4147141329623982e-04 0.0000000000000000e+00  8.5209352134191827e-11 -4.5484287820581775e-04 0.0000000000000000e+00  0.0000000000000000e+00 0.0000000000000000e+00 0.0000000000000000e+00  6.5183978652408376e-10 -3.1432651390902062e-04 0.0000000000000000e+00  1.0109963578060945e-09 -4.3845109908574500e-04 0.0000000000000000e+00  5.0492241830247336e-10 -4.5406757627793894e-04 0.0000000000000000e+00  0.0000000000000000e+00 0.0000000000000000e+00 0.0000000000000000e+00  0.0000000000000000e+00 0.0000000000000000e+00 0.0000000000000000e+00  0.0000000000000000e+00 0.0000000000000000e+00 0.0000000000000000e+00  -2.6609183289393502e-11 -3.1329491451253920e-04 0.0000000000000000e+00  0.0000000000000000e+00 0.0000000000000000e+00 0.0000000000000000e+00  0.0000000000000000e+00 0.0000000000000000e+00 0.0000000000000000e+00  -6.5145167231437882e-11 -4.4202515310206789e-04 0.0000000000000000e+00  -1.4311504980448202e-10 -4.5496922316838850e-04 0.0000000000000000e+00  0.0000000000000000e+00 0.0000000000000000e+00 0.0000000000000000e+00  1.5158340380800062e-09 -3.0456174734290958e-04 0.0000000000000000e+00  -2.6348293580026274e-09 -4.4095446864142809e-04 0.0000000000000000e+00  -1.9306247428650706e-10 -4.5504380306024832e-04 0.0000000000000000e+00  0.0000000000000000e+00 0.0000000000000000e+00 0.0000000000000000e+00  0.0000000000000000e+00 0.0000000000000000e+00 0.0000000000000000e+00  0.0000000000000000e+00 0.0000000000000000e+00 0.0000000000000000e+00  -2.2603749349623624e-10 -3.1114468690397919e-04 0.0000000000000000e+00  0.0000000000000000e+00 0.0000000000000000e+00 0.0000000000000000e+00  0.0000000000000000e+00 0.0000000000000000e+00 0.0000000000000000e+00  2.3604523891978910e-10 -4.3821903436031537e-04 0.0000000000000000e+00  4.9858581528577198e-10 -4.5419431567963629e-04 0.0000000000000000e+00  0.0000000000000000e+00 0.0000000000000000e+00 0.0000000000000000e+00  1.7467804049063046e-10 -2.9397068799429213e-04 0.0000000000000000e+00  0.0000000000000000e+00 0.0000000000000000e+00 0.0000000000000000e+00  0.0000000000000000e+00 0.0000000000000000e+00 0.0000000000000000e+00  1.1544010652736480e-10 -4.4036603230820508e-04 0.0000000000000000e+00  3.0356402671615888e-10 -4.5432240258172946e-04 0.0000000000000000e+00  0.0000000000000000e+00 0.0000000000000000e+00 0.0000000000000000e+00  2.3392177306490531e-10 -3.2177989972703789e-04 0.0000000000000000e+00  7.0524298829877260e-10 -4.4148839374234193e-04 0.0000000000000000e+00  3.5246155517255933e-10 -4.5617047621502650e-04 0.0000000000000000e+00  0.0000000000000000e+00 0.0000000000000000e+00 0.0000000000000000e+00  0.0000000000000000e+00 0.0000000000000000e+00 0.0000000000000000e+00  0.0000000000000000e+00 0.0000000000000000e+00 0.0000000000000000e+00  -1.8618693246983636e-10 -3.2174611252230379e-04 0.0000000000000000e+00  0.0000000000000000e+00 0.0000000000000000e+00 0.0000000000000000e+00  0.0000000000000000e+00 0.0000000000000000e+00 0.0000000000000000e+00  -7.7330278549436018e-11 -4.4143019784280202e-04 0.0000000000000000e+00  -1.1341935894607025e-10 -4.5595078562237623e-04 0.0000000000000000e+00  1.1357298648344571e-08 -4.3849401535986631e-04 0.0000000000000000e+00  1.4300624326043651e-09 -4.6191534077660775e-04 0.0000000000000000e+00  1.1011788779131525e-08 -3.0644641534014589e-04 0.0000000000000000e+00  0.0000000000000000e+00 0.0000000000000000e+00 0.0000000000000000e+00  2.2577310251056066e-08 -2.9649417758794452e-04 0.0000000000000000e+00  2.0612437653084002e-08 -4.4017731997586371e-04 0.0000000000000000e+00  2.9820204147551535e-08 -4.5322401990956137e-04 0.0000000000000000e+00  0.0000000000000000e+00 0.0000000000000000e+00 0.0000000000000000e+00  0.0000000000000000e+00 0.0000000000000000e+00 0.0000000000000000e+00  1.3317760817121340e-08 -4.6953333321102101e-04 0.0000000000000000e+00  7.3179939294741694e-09 -4.7091605456818844e-04 0.0000000000000000e+00  -1.9454811421321423e-09 -4.6869046995912838e-04 0.0000000000000000e+00  -3.4558491625454608e-09 -4.6878663669175065e-04 0.0000000000000000e+00  8.6787909154006148e-09 -4.7092899898722802e-04 0.0000000000000000e+00  3.4277663481852386e-08 -4.7059926088084458e-04 0.0000000000000000e+00  -6.4825719177366909e-10 -4.3368764850653887e-04 0.0000000000000000e+00  -1.0079730210999385e-09 -4.6360638330298146e-04 0.0000000000000000e+00  -8.9709733687983562e-10 -4.4717755887364988e-04 0.0000000000000000e+00  -4.4758077445444549e-10 -2.8333414240193274e-04 0.0000000000000000e+00  0.0000000000000000e+00 0.0000000000000000e+00 0.0000000000000000e+00  -1.4432519509531249e-10 -4.3293223728801456e-04 0.0000000000000000e+00  -3.2187165932600486e-10 -4.6389090093194998e-04 0.0000000000000000e+00  -7.3878138618086802e-10 -4.4420017266347554e-04 0.0000000000000000e+00  -4.1562713433704648e-10 -2.8755192044907979e-04 0.0000000000000000e+00  0.0000000000000000e+00 0.0000000000000000e+00 0.0000000000000000e+00  -7.7444151178143216e-10 -4.3298815504803131e-04 0.0000000000000000e+00  -8.4084708691544702e-10 -4.6387583524120453e-04 0.0000000000000000e+00  -4.8232852142250576e-10 -4.4439131642638204e-04 0.0000000000000000e+00  -4.2585653571988194e-10 -2.8728167424533162e-04 0.0000000000000000e+00  0.0000000000000000e+00 0.0000000000000000e+00 0.0000000000000000e+00  6.3450220618188942e-11 -4.3605052332656448e-04 0.0000000000000000e+00  8.6158034089513433e-11 -4.6404490258459625e-04 0.0000000000000000e+00  2.8153402740315603e-10 -4.4745270405087423e-04 0.0000000000000000e+00  1.9404660194660767e-10 -4.6884697092318162e-04 0.0000000000000000e+00  3.8894891936587831e-11 -2.8459039391101165e-04 0.0000000000000000e+00  0.0000000000000000e+00 0.0000000000000000e+00 0.0000000000000000e+00  6.5450659595807189e-10 -4.5302027607955461e-04 0.0000000000000000e+00  4.6459907709776043e-10 -4.6576581876644709e-04 0.0000000000000000e+00  3.8170287474430743e-10 -2.8306062053571875e-04 0.0000000000000000e+00  5.1112692862606517e-11 -4.7076180867033435e-04 0.0000000000000000e+00  -9.8089057954851703e-12 -4.7037828253378893e-04 0.0000000000000000e+00  1.4227331153855211e-10 -4.7088453492038476e-04 0.0000000000000000e+00  1.3110826558624968e-10 -4.7099674460223512e-04 0.0000000000000000e+00  3.3944970872154382e-10 -4.7012694080626624e-04 0.0000000000000000e+00  -9.1269196087764951e-10 -4.4652299550129650e-04 0.0000000000000000e+00  -1.0569340369882707e-09 -4.6508495623145073e-04 0.0000000000000000e+00  -8.9862064278180251e-10 -2.8088414743449247e-04 0.0000000000000000e+00  -4.7816542535408718e-10 -4.6762498523620103e-04 0.0000000000000000e+00  -1.4020520569452793e-09 -4.2583784627467304e-04 0.0000000000000000e+00  3.7303511750334021e-10 -4.7071028630609369e-04 0.0000000000000000e+00  2.0428752036876362e-10 -4.7095395722529228e-04 0.0000000000000000e+00  2.8723544108880423e-10 -4.7100706303202888e-04 0.0000000000000000e+00  4.3878694779451054e-08 -4.4487214742502463e-04 0.0000000000000000e+00  5.4656637581524598e-08 -4.5731060985202662e-04 0.0000000000000000e+00  2.1260127274575312e-08 -4.3126354238758003e-04 0.0000000000000000e+00  -4.7721996231266884e-10 -4.6872644062002271e-04 0.0000000000000000e+00  -6.5070520843706620e-10 -4.6825994938271194e-04 0.0000000000000000e+00  6.6789794142304760e-11 -4.7088654782145406e-04 0.0000000000000000e+00  8.9790185222797729e-11 -4.6892895399517048e-04 0.0000000000000000e+00  7.1474500552097564e-11 -4.6826269521139019e-04 0.0000000000000000e+00  1.9126493240657465e-10 -4.7091601824449249e-04 0.0000000000000000e+00  -4.3471102825682680e-10 -4.6874041962633893e-04 0.0000000000000000e+00  -5.6896568910503337e-10 -4.6840154803245299e-04 0.0000000000000000e+00  -4.0503719119011704e-10 -4.7088801347329896e-04 0.0000000000000000e+00  5.0273049892812916e-10 -4.5040135462903725e-04 0.0000000000000000e+00  2.7202729140119434e-10 -4.6830436024303392e-04 0.0000000000000000e+00  3.8355467374514734e-10 -4.6955596095802097e-04 0.0000000000000000e+00  -1.9493004659311145e-11 -4.6980390272407916e-04 0.0000000000000000e+00  5.7431494777653767e-10 -4.6949927545525020e-04 0.0000000000000000e+00  6.4590959728998723e-10 -4.6947387932824215e-04 0.0000000000000000e+00  7.5256788507108615e-10 -4.6830716093152760e-04 0.0000000000000000e+00  7.6766581531471396e-10 -4.6956851965655223e-04 0.0000000000000000e+00  6.8162503894122193e-10 -4.6981219856634691e-04 0.0000000000000000e+00  4.1207714478844425e-10 -4.5113797107317001e-04 0.0000000000000000e+00  2.8541442879365684e-10 -4.6873285615563036e-04 0.0000000000000000e+00  7.8223247488343532e-11 -4.6941995025464315e-04 0.0000000000000000e+00  4.6974002170711981e-11 -4.6852792623133452e-04 0.0000000000000000e+00  3.1948698518127251e-10 -4.6953499486051354e-04 0.0000000000000000e+00  -2.3363464390655441e-11 -4.6968319306042857e-04 0.0000000000000000e+00  -2.3945004827053956e-10 -4.5114533475286726e-04 0.0000000000000000e+00  -5.1048518550123011e-10 -4.6873888288803705e-04 0.0000000000000000e+00  -3.4418684578448572e-10 -4.6943074714614038e-04 0.0000000000000000e+00  -2.8771256156349281e-10 -4.6855958861758735e-04 0.0000000000000000e+00  -2.5747974735327955e-10 -4.6953959856177371e-04 0.0000000000000000e+00  -2.2719982928445159e-10 -4.6971178376088100e-04 0.0000000000000000e+00  7.5651120767319441e-10 -4.6872441540513022e-04 0.0000000000000000e+00  3.9125990144789138e-10 -4.6942486926897074e-04 0.0000000000000000e+00  5.8326646286173084e-10 -4.6850780884002204e-04 0.0000000000000000e+00  -8.9232705457665956e-11 -4.6872699302522405e-04 0.0000000000000000e+00  -1.2872069824140201e-10 -4.6942674931232741e-04 0.0000000000000000e+00  2.1376765456318290e-11 -4.6851023703087296e-04 0.0000000000000000e+00  4.0303564523984611e-10 -4.5145049707138508e-04 0.0000000000000000e+00  5.2373463275066511e-10 -4.6876770123455115e-04 0.0000000000000000e+00  5.1321740655579690e-10 -4.6944506576338012e-04 0.0000000000000000e+00  5.7019688664793262e-10 -4.6855945923416281e-04 0.0000000000000000e+00  4.9243412112475840e-10 -4.6956222549259891e-04 0.0000000000000000e+00  4.5462297819059563e-10 -4.6970204229412205e-04 0.0000000000000000e+00  4.5008172881966183e-10 -4.6875722479883415e-04 0.0000000000000000e+00  4.2109139008090388e-10 -4.6941913987637481e-04 0.0000000000000000e+00  3.3866685284810120e-10 -4.6843857874975770e-04 0.0000000000000000e+00  -3.6247816623545956e-10 -4.5142211052740915e-04 0.0000000000000000e+00  -3.1416138562797582e-10 -4.6869384416055451e-04 0.0000000000000000e+00  -2.7335696775654284e-10 -4.6940587010811110e-04 0.0000000000000000e+00  -2.0270566575323960e-10 -4.6781194506555673e-04 0.0000000000000000e+00  -4.1163456619290960e-10 -4.6955838113649754e-04 0.0000000000000000e+00  -2.7877542128875304e-10 -4.6968469834235698e-04 0.0000000000000000e+00  -5.6444770604207868e-10 -4.6876046017123763e-04 0.0000000000000000e+00  -4.4513110318894947e-10 -4.6941894503111070e-04 0.0000000000000000e+00  -5.2078905913739731e-10 -4.6850879997930651e-04 0.0000000000000000e+00  9.7004768126249845e-10 -4.5113353857612005e-04 0.0000000000000000e+00  1.4988011158312918e-09 -4.6872270148273760e-04 0.0000000000000000e+00  1.6107545505918271e-09 -4.6941902436704717e-04 0.0000000000000000e+00  1.8010031804279379e-09 -4.6849983263741132e-04 0.0000000000000000e+00  1.3463886242978723e-09 -4.6953456399004214e-04 0.0000000000000000e+00  1.3277582842900856e-09 -4.6968077476881458e-04 0.0000000000000000e+00  7.4873694484902339e-10 -4.5284998018652387e-04 0.0000000000000000e+00  6.1153669129282796e-10 -4.6676522972589608e-04 0.0000000000000000e+00  3.8921196910201984e-10 -4.6969154193126131e-04 0.0000000000000000e+00  2.1923697855011022e-10 -4.6880353121233638e-04 0.0000000000000000e+00  6.5779003878784657e-10 -4.6952780623937818e-04 0.0000000000000000e+00  3.7778731251523570e-10 -4.6976747321809839e-04 0.0000000000000000e+00  -7.5013593114414094e-10 -4.5113660957413784e-04 0.0000000000000000e+00  -9.6136810274960086e-10 -4.6872433593719360e-04 0.0000000000000000e+00  -6.4142628439634501e-10 -4.6941753642995397e-04 0.0000000000000000e+00  -6.